ITEM: TIMESTEP
100000
ITEM: NUMBER OF ATOMS
2048
ITEM: BOX BOUNDS pp pp pp
0.0000000000000000e+00 1.3153131063095840e+01
0.0000000000000000e+00 1.3153131063095840e+01
0.0000000000000000e+00 1.3153131063095840e+01
ITEM: ATOMS id type xs ys zs
1691 1 0.761591 0.0662287 0.0631357
1094 1 0.0362868 0.25302 0.0292956
10 1 0.970009 0.22145 0.0251344
83 1 0.708103 0.0251256 0.099076
891 1 0.866702 0.063206 0.140317
1944 1 0.80912 0.125573 0.0845077
1475 1 0.876201 0.474754 0.0545465
1935 1 0.344142 0.220924 0.11277
1768 1 0.257095 0.0548895 0.168151
64 1 0.418616 0.221855 0.132857
943 1 0.6428 0.083696 0.150301
1244 1 0.64144 0.477465 0.167877
812 1 0.247975 0.375428 0.0255531
1676 1 0.267572 0.371863 0.110675
1032 1 0.459073 0.102598 0.0604545
85 1 0.915224 0.158378 0.0165894
831 1 0.234007 0.0220755 0.100716
250 1 0.0994447 0.164731 0.036305
1553 1 0.721315 0.0945701 0.125229
614 1 0.225815 0.255215 0.103513
753 1 0.815572 0.129246 0.161347
2006 1 0.861033 0.0136516 0.0786511
49 1 0.014731 0.470421 0.117366
406 1 0.532219 0.438401 0.128217
1747 1 0.862645 0.489499 0.193534
1688 1 0.332618 0.344764 0.16109
654 1 0.970991 0.409513 0.154838
1052 1 0.971995 0.317873 0.0401196
307 1 0.548628 0.247479 0.0319964
1769 1 0.33163 0.430361 0.144145
1806 1 0.677858 0.0394689 0.00150896
1518 1 0.031535 0.0138688 0.140453
699 1 0.609316 0.480261 0.00250528
368 1 0.848216 0.39014 0.07295
442 1 0.355423 0.167774 0.02163
1269 1 0.569224 0.497424 0.163683
769 1 0.555309 0.0643034 0.121487
1770 1 0.920236 0.245458 0.108143
1678 1 0.233685 0.448711 0.160423
597 1 0.639125 0.287523 0.147373
990 1 0.0680146 0.266734 0.104823
172 1 0.848483 0.338867 0.182561
1715 1 0.522456 0.443791 0.0485748
1135 1 0.155592 0.381481 0.0554084
914 1 0.407485 0.417926 0.186456
588 1 0.351129 0.293532 0.0952367
453 1 0.647256 0.219764 0.174936
1033 1 0.248805 0.364969 0.185021
674 1 0.693828 0.38954 0.0428142
1205 1 0.591054 0.499463 0.0855009
1213 1 0.721395 0.435913 0.19239
542 1 0.121105 0.400286 0.186403
1994 1 0.0547228 0.0274982 0.051679
1980 1 0.623125 0.285491 0.0699081
183 1 0.0727469 0.235654 0.178768
1552 1 0.708043 0.283377 0.0801147
1543 1 0.205151 0.268997 0.0230688
1162 1 0.7953 0.0620308 0.19376
1057 1 0.960444 0.160513 0.0738665
2048 1 0.967841 0.0406351 0.109531
1110 1 0.946532 0.345617 0.108649
1754 1 0.936879 0.0258145 0.0410313
1538 1 0.0567599 0.102417 0.0391697
291 1 0.782034 0.00290717 0.0376971
1811 1 0.201266 0.189665 0.132199
1170 1 0.446115 0.469979 0.14748
57 1 0.797423 0.347709 0.115872
1258 1 0.602659 0.207789 0.106021
1725 1 0.0373395 0.0855667 0.113632
182 1 0.638166 0.032466 0.0668584
301 1 0.668882 0.219991 0.0852472
661 1 0.130706 0.474065 0.0325601
1858 1 0.968902 0.088972 0.0430167
1118 1 0.392331 0.00888374 0.0142292
1784 1 0.494053 0.10972 0.123379
802 1 0.944346 0.0896659 0.160431
763 1 0.0508973 0.391994 0.00944707
925 1 0.0346947 0.487708 0.191726
1651 1 0.804498 0.40802 0.162079
820 1 0.188797 0.318666 0.164597
48 1 0.972074 0.204647 0.148458
188 1 0.620608 0.430257 0.057467
263 1 0.745492 0.146548 0.170169
1346 1 0.72911 0.219881 0.13716
1280 1 0.918192 0.384731 0.0560649
1363 1 0.367209 0.283612 0.192214
590 1 0.30733 0.117216 0.0764308
219 1 0.400391 0.362612 0.0733474
121 1 0.781923 0.477582 0.173657
1962 1 0.747142 0.39281 0.092618
410 1 0.166701 0.464886 0.0997385
853 1 0.482236 0.0412861 0.10366
1403 1 0.525246 0.337686 0.111171
996 1 0.629039 0.358422 0.0547612
488 1 0.572903 0.0737061 0.196634
809 1 0.137131 0.272973 0.0824316
1745 1 0.732363 0.16253 0.0840119
503 1 0.969982 0.346663 0.179123
1131 1 0.281859 0.285239 0.143572
1594 1 0.0575157 0.409556 0.142877
579 1 0.133715 0.153227 0.172395
648 1 0.875394 0.215988 0.157869
1667 1 0.427855 0.106078 0.174203
232 1 0.199715 0.3867 0.134497
1990 1 0.736912 0.44703 0.0150514
605 1 0.808539 0.197876 0.115491
1670 1 0.0403544 0.145535 0.156777
322 1 0.997317 0.278262 0.170818
43 1 0.389289 0.0758503 0.111829
1443 1 0.281022 0.184581 0.111129
146 1 0.822728 0.09108 0.0238251
1902 1 0.353309 0.0927556 0.0152061
1084 1 0.326099 0.402795 0.0632741
1548 1 0.338114 0.0603637 0.165611
1090 1 0.105606 0.471492 0.1621
1334 1 0.17836 0.0758492 0.0225919
1014 1 0.558997 0.0233242 0.0524422
1255 1 0.53649 0.316199 0.0414101
1624 1 0.557381 0.309519 0.18799
1490 1 0.125321 0.00604676 0.0143832
761 1 0.947613 0.00614527 0.18658
1528 1 0.653414 0.403707 0.142625
1622 1 0.3326 0.487846 0.0509537
236 1 0.47014 0.386727 0.0559302
1299 1 0.0701972 0.322427 0.0552738
623 1 0.89748 0.103895 0.0782825
576 1 0.295257 0.2085 0.185666
1884 1 0.964281 0.452746 0.0577309
1814 1 0.104029 0.115034 0.0943998
1371 1 0.303617 0.327299 0.0510519
1345 1 0.75746 0.290435 0.14434
1792 1 0.237043 0.13428 0.0577135
168 1 0.437983 0.0354432 0.160728
1039 1 0.686658 0.35018 0.105865
191 1 0.397963 0.427374 0.108792
2023 1 0.0389557 0.472025 0.0455852
659 1 0.813966 0.276774 0.0694102
1900 1 0.674592 0.147683 0.147275
1133 1 0.93708 0.497594 0.122985
1659 1 0.884876 0.29989 0.0552834
271 1 0.42557 0.317362 0.129095
147 1 0.564215 0.268174 0.104951
1005 1 0.484913 0.190722 0.139524
1894 1 0.739926 0.332061 0.0338592
328 1 0.239326 0.203518 0.0295269
149 1 0.664374 0.490192 0.0552106
409 1 0.115874 0.329011 0.139892
441 1 0.797105 0.481808 0.0753903
141 1 0.579856 0.164952 0.0310998
1498 1 0.388656 0.292805 0.0322457
264 1 0.0900424 0.415884 0.0748543
636 1 0.839522 0.276324 0.136804
255 1 0.128217 0.318674 0.00593633
1636 1 0.424605 0.17096 0.0700496
569 1 0.536555 0.11265 0.0645002
1564 1 0.400449 0.432076 0.025099
1927 1 0.253032 0.445683 0.0665292
1456 1 0.362098 0.357276 -0.000399268
629 1 0.559594 0.382439 0.0678093
1703 1 0.149105 0.239726 0.165916
670 1 0.866584 0.448858 0.125147
1372 1 0.496752 0.1811 0.0702103
1827 1 0.727326 0.118226 0.0181915
1040 1 0.48177 0.386052 0.145416
1943 1 0.48563 0.26318 0.155021
229 1 0.141692 0.075736 0.155318
339 1 0.204069 0.322612 0.08031
1640 1 0.872705 0.198664 0.0615454
1230 1 0.901479 0.393638 0.152285
469 1 0.693245 0.439753 0.0938307
93 1 0.156067 0.0476635 0.0872786
75 1 0.00644034 0.39502 0.0734736
1309 1 0.377347 0.499862 0.131391
1081 1 0.501928 0.0305651 0.0134385
483 1 0.635965 0.108119 0.0713765
260 1 0.654114 0.17199 0.024579
935 1 0.417606 0.500721 0.0589233
1521 1 0.581058 0.374486 0.154912
837 1 0.358343 0.146685 0.126914
283 1 0.908166 0.296497 0.165433
220 1 0.895821 0.141253 0.14636
2020 1 0.2509 0.148542 0.175872
1870 1 0.284313 0.0511132 0.0274199
558 1 0.317259 0.0456896 0.0932763
1076 1 0.408863 0.340113 0.196006
995 1 0.442019 0.240292 0.0566821
367 1 0.621503 0.0162799 0.175272
1649 1 0.777486 0.0302865 0.125518
253 1 0.0669952 0.186883 0.101157
1750 1 0.16474 0.208099 0.0682558
1846 1 0.573619 0.227165 0.166757
1451 1 0.458403 0.315184 0.0486238
934 1 0.283289 0.255924 0.054722
1293 1 0.18011 0.115297 0.100953
619 1 0.570472 0.129074 0.14749
1145 1 0.690902 0.29802 0.196398
98 1 0.0399691 0.336932 0.131346
1268 1 0.777206 0.214963 0.0533144
1707 1 0.52176 0.00852411 0.163604
482 1 0.818084 0.344195 0.0136397
547 1 0.0726706 0.0784689 0.191179
293 1 0.735862 0.358311 0.195954
504 1 0.492716 0.135367 0.194642
1194 1 0.693591 0.260279 0.00405226
23 1 0.298102 0.489952 0.174708
1997 1 0.350299 0.14614 0.198954
289 1 0.911765 0.260108 0.00147239
796 1 0.666911 0.270478 0.25861
1857 1 0.369176 0.26491 0.282873
1908 1 0.488472 0.242977 0.357019
1147 1 0.510607 0.0608697 0.324445
475 1 0.69124 0.185643 0.228604
964 1 0.758401 0.276748 0.354428
225 1 0.543322 0.240276 0.302967
1996 1 0.973768 0.451208 0.326995
1377 1 0.027056 0.39182 0.210767
705 1 0.735884 0.211565 0.308187
919 1 0.869857 0.199362 0.248719
1101 1 0.379295 0.486338 0.210762
1215 1 0.106403 0.104658 0.250928
82 1 0.373544 0.362548 0.328693
545 1 0.563249 0.108445 0.276017
1157 1 0.328666 0.0638315 0.272456
473 1 0.699934 0.0648802 0.349439
1849 1 0.0484896 0.417602 0.29288
1692 1 0.427825 0.276708 0.324444
1722 1 0.667732 0.225819 0.317885
1930 1 0.920245 0.33417 0.253377
963 1 0.432811 0.213155 0.28777
1590 1 0.182392 0.105801 0.287873
1907 1 0.55072 0.0237949 0.37346
20 1 0.228759 0.108745 0.351422
724 1 0.972116 0.31031 0.317857
583 1 0.882314 0.401093 0.226119
1000 1 0.156259 0.267919 0.249679
611 1 0.869815 0.00606471 0.390069
1445 1 0.115591 0.189759 0.293568
1945 1 0.162137 0.188702 0.231726
1871 1 0.449218 0.465818 0.284841
543 1 0.34759 0.35299 0.244132
1202 1 0.907333 0.466988 0.248416
1838 1 0.537687 0.182263 0.234953
100 1 0.919054 0.471282 0.373838
1842 1 0.124873 0.324671 0.289655
285 1 0.587715 0.192299 0.375482
983 1 0.659263 0.14682 0.281422
776 1 0.29614 0.200825 0.326684
1733 1 0.0344804 0.0916521 0.379341
412 1 0.925451 0.0273497 0.29989
1495 1 0.749431 0.384431 0.272271
404 1 0.440324 0.165355 0.355473
1734 1 0.516719 0.318408 0.289919
1576 1 0.213386 0.184177 0.298027
1744 1 0.613784 0.345252 0.357929
1091 1 0.483383 0.323125 0.201811
1512 1 0.706756 0.411483 0.335136
166 1 0.821902 0.446866 0.250511
316 1 0.218098 0.407948 0.28432
508 1 0.786588 0.0915046 0.305193
1578 1 0.735476 0.114379 0.238057
179 1 0.57837 0.435609 0.205016
1470 1 0.958013 0.0794009 0.3636
899 1 0.194882 0.0286012 0.295385
1098 1 0.715035 0.035391 0.281512
369 1 0.724579 0.135703 0.316489
1701 1 0.614521 0.28343 0.31266
428 1 0.27307 0.287002 0.229361
1936 1 0.921816 0.153975 0.223994
1599 1 0.982438 0.384953 0.292444
1525 1 0.145404 0.405282 0.289913
1505 1 0.698164 0.226055 0.395104
1742 1 0.311717 0.359063 0.380147
1631 1 0.634678 0.0781121 0.294378
755 1 0.442642 0.0239325 0.262856
1795 1 0.0786626 0.0394363 0.260593
1395 1 0.173072 0.0248403 0.220931
1 1 0.258783 0.0223378 0.395153
1664 1 0.386642 0.0559624 0.339836
1412 1 0.157693 0.074221 0.350952
1148 1 0.817859 0.0287109 0.261289
1992 1 0.510934 0.0387267 0.241841
2026 1 0.505413 0.253064 0.235027
805 1 0.776147 0.0897747 0.386657
1531 1 0.873153 0.220072 0.332542
1480 1 0.822414 0.364098 0.255887
1324 1 0.0103703 0.051086 0.29409
757 1 0.0634723 0.456602 0.359199
1978 1 0.37912 0.140072 0.392575
827 1 0.531657 0.472947 0.394059
300 1 0.0882166 0.104386 0.326221
415 1 0.4664 0.350847 0.330014
1455 1 0.976622 0.190889 0.377292
1654 1 0.670463 0.421281 0.246066
1233 1 0.620083 0.328472 0.213932
566 1 0.722648 0.49237 0.258909
1762 1 0.81137 0.305996 0.300627
1361 1 0.413049 0.319905 0.266725
237 1 0.838232 0.465515 0.372966
1109 1 0.788123 0.176946 0.26218
95 1 0.178038 0.474412 0.236009
1859 1 0.321457 0.211291 0.254392
668 1 0.59861 0.193706 0.284198
1466 1 0.0853556 0.373746 0.251428
1270 1 0.306322 0.31773 0.312325
845 1 0.42543 0.242499 0.398268
1064 1 0.0217773 0.11892 0.254646
524 1 0.534887 0.378005 0.341081
977 1 0.535146 0.47864 0.249951
66 1 0.780711 0.464433 0.326317
517 1 0.733398 0.00425686 0.359071
1201 1 0.451226 0.0955319 0.333505
455 1 0.750244 0.350885 0.343481
1154 1 0.971543 0.0646876 0.224929
745 1 0.0288171 0.232041 0.244845
1314 1 0.372663 0.128998 0.298606
197 1 0.36867 0.0187767 0.235997
1585 1 0.654743 0.158462 0.355947
1693 1 0.176774 0.379567 0.230862
1247 1 0.28689 0.46543 0.302923
649 1 0.376225 0.204431 0.329333
127 1 0.393719 0.434392 0.348078
647 1 0.277712 0.366299 0.265866
319 1 0.923621 0.145771 0.355398
414 1 0.239107 0.321095 0.351142
1912 1 0.526198 0.378808 0.21271
1159 1 0.582825 0.0954307 0.367499
1756 1 0.211841 0.455926 0.350279
462 1 0.657829 0.076336 0.22242
586 1 0.34361 0.428467 0.294419
1182 1 0.51458 0.173778 0.341177
1256 1 0.453254 0.131286 0.258903
1951 1 0.612509 0.0158635 0.253678
697 1 0.0587509 0.176568 0.358481
201 1 0.737582 0.277156 0.280209
1297 1 0.145652 0.151488 0.354209
551 1 0.656321 0.487349 0.288629
653 1 0.897481 0.338112 0.356303
7 1 0.00116513 0.306997 0.242362
112 1 0.0459282 0.324794 0.305267
56 1 0.194791 0.258834 0.339765
644 1 0.339538 0.260641 0.357703
1999 1 0.398672 0.0852274 0.240822
326 1 0.974148 0.440899 0.223875
242 1 0.720339 0.146926 0.395735
402 1 0.688442 0.452566 0.397799
1713 1 0.83701 0.255382 0.211927
540 1 0.084258 0.305742 0.202969
1435 1 0.879049 0.417757 0.308156
1093 1 0.805056 0.0169355 0.343273
1463 1 0.32128 0.0933654 0.351278
1129 1 0.946201 0.234082 0.235488
1909 1 0.262707 0.259571 0.30506
1672 1 0.994407 0.173913 0.21657
500 1 0.426556 0.480779 0.397717
604 1 0.628103 0.036416 0.379225
1267 1 0.486392 0.439468 0.20465
1753 1 0.547308 0.28557 0.37522
373 1 0.268856 0.396538 0.33953
1386 1 0.603472 0.456857 0.357263
921 1 0.172582 0.39703 0.372614
961 1 0.590278 0.427465 0.290258
311 1 0.0349189 0.379554 0.374237
1627 1 0.849065 0.148033 0.302083
132 1 0.972428 0.0085059 0.367189
998 1 0.0931208 0.256668 0.28594
1993 1 0.923499 0.105668 0.289043
1310 1 0.930772 0.186856 0.293132
1897 1 0.821316 0.378029 0.374738
1938 1 0.963514 0.392061 0.374902
418 1 0.75279 0.221637 0.208301
606 1 0.102056 0.0155172 0.351136
1563 1 0.430606 0.251809 0.224513
646 1 0.184349 0.105213 0.210729
1628 1 0.473907 0.419283 0.369503
717 1 0.99226 0.233794 0.308595
110 1 0.0999843 0.38868 0.342724
950 1 0.138756 0.471833 0.329281
955 1 0.930092 0.265243 0.390781
240 1 0.421565 0.397961 0.279038
1477 1 0.595827 0.353213 0.282445
620 1 0.254786 0.0222652 0.252908
427 1 0.880567 0.27353 0.279981
102 1 0.681522 0.358618 0.390435
1820 1 0.0981266 0.463574 0.259538
1308 1 0.597942 0.264035 0.236043
1634 1 0.276944 0.123994 0.238955
1195 1 0.499704 0.40801 0.27956
206 1 0.142972 0.228521 0.377261
1950 1 0.998386 0.12854 0.32156
873 1 0.803174 0.194781 0.34426
233 1 0.450876 0.0253338 0.363138
740 1 0.835866 0.121931 0.232658
266 1 0.628187 0.145151 0.20962
815 1 0.204993 0.323245 0.285435
1822 1 0.776227 0.296633 0.216101
1979 1 0.846831 0.138591 0.389605
1777 1 0.86947 0.0873184 0.340143
982 1 0.673412 0.359076 0.29075
922 1 0.686936 0.303753 0.336198
1062 1 0.332781 0.425014 0.226196
1642 1 0.890927 0.404041 0.394854
1967 1 0.0231229 0.287646 0.375492
1450 1 0.266506 0.447833 0.226053
538 1 0.887696 0.0616213 0.225963
389 1 0.0977941 0.322043 0.38924
417 1 0.0789796 0.165903 0.219312
1186 1 0.17633 0.323813 0.389442
2017 1 0.806762 0.311108 0.393018
1504 1 0.247075 0.176102 0.377119
357 1 0.0739518 0.23911 0.393394
859 1 0.263521 0.257004 0.387269
512 1 0.751865 0.407513 0.395914
1307 1 0.00134093 0.455963 0.398397
365 1 0.756171 0.00431305 0.221645
2045 1 0.315183 0.178162 0.398029
362 1 0.221205 0.232664 0.200763
1771 1 0.42096 0.1859 0.200777
105 1 0.117765 0.166777 0.476006
395 1 0.0475924 0.0396281 0.491182
352 1 0.528057 0.127352 0.431161
587 1 0.656579 0.0175851 0.577611
230 1 0.643191 0.278317 0.573237
398 1 0.204637 0.464737 0.596421
438 1 0.237278 0.380869 0.415529
511 1 0.652533 0.0999679 0.576905
1136 1 0.0611083 0.339077 0.597208
879 1 0.0694083 0.422402 0.500392
247 1 0.425242 0.140217 0.454735
5 1 0.402956 0.140169 0.588833
1786 1 0.392258 0.309769 0.451832
156 1 0.951381 0.0575791 0.557533
1410 1 0.55309 0.480615 0.583551
1172 1 0.260371 0.293017 0.50602
1422 1 0.571305 0.157974 0.569518
819 1 0.623238 0.283055 0.485882
1799 1 0.609606 0.466936 0.533908
1887 1 0.681599 0.318799 0.513757
1788 1 0.232313 0.146046 0.457529
2019 1 0.479076 0.445458 0.442365
1529 1 0.50205 0.458142 0.521221
1337 1 0.635521 0.363495 0.463987
1126 1 0.546555 0.389566 0.424037
239 1 0.475814 0.185835 0.413353
581 1 0.332864 0.384649 0.458437
1111 1 0.184875 0.13588 0.511055
682 1 0.728791 0.0537185 0.57745
1766 1 0.271618 0.440826 0.590256
176 1 0.985959 0.354679 0.487204
744 1 0.375428 0.0657384 0.436382
68 1 0.28069 0.214373 0.530461
1236 1 0.582607 0.409929 0.488147
1923 1 0.7093 0.310952 0.583905
557 1 0.946356 0.0906363 0.482737
1639 1 0.0473899 0.106404 0.462563
474 1 0.675929 0.447189 0.55391
714 1 0.0369612 0.323733 0.436176
1562 1 0.103796 0.408801 0.420211
136 1 0.203651 0.418719 0.535338
1283 1 0.652564 0.184756 0.439539
1117 1 0.353442 0.240187 0.432392
1577 1 0.156431 0.15412 0.590351
711 1 0.38049 0.340832 0.527219
1534 1 0.547286 0.394843 0.546485
675 1 0.330027 0.119359 0.442906
2039 1 0.0253907 0.400094 0.443649
1554 1 0.605506 0.335677 0.591068
2036 1 0.0946894 0.343556 0.482628
795 1 0.164231 0.307829 0.497984
506 1 0.525136 0.277586 0.490033
766 1 0.343143 0.0616379 0.564912
189 1 0.278531 0.209764 0.457135
1189 1 0.433781 0.159943 0.523366
399 1 0.460689 0.0949504 0.405385
1467 1 0.404817 0.238438 0.483937
1121 1 0.915218 0.0444923 0.433118
887 1 0.118392 0.482768 0.425378
1239 1 0.572905 0.329217 0.520074
1612 1 0.831315 0.235668 0.405571
1866 1 0.209024 0.213065 0.502894
1915 1 0.954814 0.325142 0.422888
1937 1 0.833594 0.0634982 0.430227
2027 1 0.734705 0.122777 0.531088
29 1 0.0285421 0.0978601 0.530523
552 1 0.511106 0.345349 0.467127
123 1 0.498188 0.0223209 0.543658
109 1 0.401729 0.0836011 0.504265
422 1 0.177723 0.484362 0.511686
1813 1 0.26709 0.372338 0.492861
1998 1 0.343194 0.2671 0.501664
397 1 0.214332 0.0371656 0.480618
971 1 0.669527 0.188266 0.559765
50 1 0.736178 0.244878 0.572627
701 1 0.535883 0.196597 0.515781
1022 1 0.20302 0.329004 0.556644
71 1 0.716018 0.0562084 0.490324
152 1 0.361017 0.452115 0.415347
1708 1 0.376098 0.011973 0.515892
1237 1 0.667328 0.482523 0.473946
1620 1 0.433088 0.472253 0.562282
556 1 0.314543 0.420416 0.530816
1796 1 0.0776818 0.143042 0.581815
1714 1 0.837016 0.456309 0.538512
1972 1 0.994941 0.423526 0.511823
958 1 0.200123 0.0849825 0.415673
140 1 0.501323 0.326983 0.560558
901 1 0.270188 0.371394 0.576974
671 1 0.810831 0.35931 0.543613
464 1 0.308085 0.302348 0.557985
270 1 0.431209 0.318154 0.582069
641 1 0.764156 0.107191 0.457518
666 1 0.700068 0.407566 0.471577
1705 1 0.260675 0.473959 0.503202
534 1 0.486993 0.110572 0.496562
54 1 0.278307 0.447731 0.428346
1446 1 0.953529 0.432188 0.455583
2015 1 0.452104 0.393761 0.571557
1243 1 0.0692652 0.467848 0.58349
99 1 0.757984 0.35689 0.458964
1851 1 0.131288 0.346663 0.566685
509 1 0.109285 0.080329 0.51826
834 1 0.739386 0.374897 0.55137
491 1 0.0552766 0.177573 0.430275
1168 1 0.99485 0.488697 0.552809
1454 1 0.144033 0.243112 0.459108
383 1 0.35932 0.167302 0.494285
599 1 0.57992 0.0673332 0.559436
195 1 0.430401 0.36655 0.40851
88 1 0.688537 0.0412985 0.421044
162 1 0.964757 0.159424 0.457109
1217 1 0.263883 0.0891124 0.5142
279 1 0.446562 0.311657 0.499485
1509 1 0.963245 0.143183 0.541217
1259 1 0.838725 0.292138 0.534104
1248 1 0.472731 0.205124 0.483117
2004 1 0.885512 0.119652 0.446691
4 1 0.858156 0.190354 0.468484
190 1 0.00508147 0.265115 0.529491
73 1 0.234146 0.304998 0.433814
223 1 0.900428 0.317597 0.5787
193 1 0.0964735 0.496405 0.503022
1323 1 0.227318 0.173344 0.582282
1207 1 0.134771 0.024525 0.56256
388 1 0.314578 0.30766 0.437428
997 1 0.998048 0.0386125 0.426305
1501 1 0.273835 0.0935304 0.413086
46 1 0.696868 0.248244 0.502461
882 1 0.638204 0.380036 0.543405
1749 1 0.883458 0.133749 0.524805
1418 1 0.272532 0.005428 0.521517
688 1 0.57838 0.31055 0.437727
880 1 0.376973 0.275871 0.58282
1083 1 0.822559 0.21492 0.551344
1787 1 0.112985 0.218361 0.533742
521 1 0.953753 0.239546 0.589166
679 1 0.905726 0.198981 0.53348
450 1 0.910977 0.375876 0.53121
461 1 0.781601 0.176303 0.423456
420 1 0.0806969 0.0609257 0.598367
1524 1 0.310241 0.146869 0.54709
687 1 0.133947 0.111569 0.422789
733 1 0.138367 0.438704 0.56371
1885 1 0.746473 0.458371 0.521739
1409 1 0.604383 0.476746 0.433965
174 1 0.0101846 0.173111 0.587203
1743 1 0.343456 0.475484 0.481542
663 1 0.151551 0.0126992 0.442745
885 1 0.672013 0.122733 0.474169
344 1 0.446704 0.38738 0.48
1105 1 0.0678005 0.258619 0.474414
199 1 0.463829 0.0298971 0.460195
1537 1 0.763398 0.297179 0.52225
143 1 0.470879 0.0981399 0.578344
929 1 0.931691 0.470615 0.524338
325 1 0.779082 0.015294 0.417697
1946 1 0.754389 0.236326 0.461401
869 1 0.0840432 0.28217 0.552113
1486 1 0.049528 0.195154 0.502965
788 1 0.795071 0.477163 0.593939
804 1 0.867537 0.0626355 0.518582
1400 1 0.54176 0.0559827 0.450411
1018 1 0.203777 0.0641827 0.562981
622 1 0.854422 0.452822 0.462971
290 1 0.699682 0.298818 0.430395
550 1 0.799237 0.0305506 0.568086
1544 1 0.624117 0.0850033 0.429353
1356 1 0.963849 0.0109758 0.493993
1532 1 0.547327 0.261093 0.568646
932 1 0.865589 0.374128 0.46601
1234 1 0.774145 0.437494 0.457865
200 1 0.792482 0.0459837 0.491735
754 1 0.324914 0.0560503 0.486205
119 1 0.577881 0.130649 0.488082
84 1 0.476907 0.298757 0.413886
1021 1 0.478962 0.177587 0.593592
1690 1 0.920065 0.27045 0.514727
1208 1 0.812577 0.105498 0.530593
8 1 0.537334 0.20887 0.442389
1036 1 0.445273 0.22672 0.548974
1152 1 0.778163 0.170363 0.497243
364 1 0.613384 0.219227 0.529721
116 1 0.42125 0.480235 0.487467
1540 1 0.967141 0.234021 0.459381
1834 1 0.619708 0.0380509 0.502919
777 1 0.856332 0.266483 0.466087
265 1 0.184821 0.452187 0.417336
1483 1 0.172127 0.382698 0.457916
157 1 0.904792 0.189391 0.408205
716 1 0.207165 0.214312 0.42916
331 1 0.818625 0.411909 0.598445
1804 1 0.0747254 0.0420304 0.42155
1223 1 0.972213 0.342126 0.573245
1802 1 0.390017 0.421777 0.530595
1001 1 0.626225 0.263556 0.409487
1065 1 0.628804 0.408857 0.408783
1926 1 0.872487 0.083777 0.589814
621 1 0.347725 0.206718 0.569421
764 1 0.892525 0.433827 0.595324
780 1 0.226278 0.00091489 0.598673
452 1 0.754752 0.493846 0.403529
1687 1 0.95371 0.363898 0.755318
1516 1 0.0474364 0.150368 0.653658
1082 1 0.412913 0.0380919 0.618501
1264 1 0.59399 0.265609 0.627452
1352 1 0.201217 0.0338393 0.786289
227 1 0.477435 0.26732 0.599254
715 1 0.708966 0.173708 0.696478
692 1 0.0418511 0.257824 0.69661
938 1 0.124777 0.332345 0.672679
1630 1 0.198582 0.285336 0.684087
1350 1 0.272086 0.0607964 0.613414
823 1 0.451977 0.175909 0.72755
1347 1 0.526691 0.390492 0.696234
1511 1 0.402707 0.332971 0.767382
1517 1 0.727315 0.251349 0.65367
893 1 0.647171 0.164314 0.62637
690 1 0.141664 0.192341 0.691496
1868 1 0.450926 0.400443 0.649969
1086 1 0.772129 0.000440658 0.740718
1304 1 0.571252 0.410298 0.750559
1973 1 0.363735 0.400317 0.784165
1176 1 0.914642 0.172243 0.686862
1224 1 0.683253 0.348288 0.770422
1150 1 0.553761 0.203873 0.626457
487 1 0.278243 0.395656 0.795978
21 1 0.592669 0.00582298 0.765577
1601 1 0.403189 0.115055 0.738957
394 1 0.207681 0.344853 0.630405
1070 1 0.99623 0.217189 0.737295
167 1 0.525146 0.198458 0.722763
1821 1 0.299017 0.37452 0.643073
137 1 0.160876 0.458489 0.7411
546 1 0.67071 0.0468104 0.658178
616 1 0.218304 0.40534 0.711547
1142 1 0.372379 0.258324 0.654851
1193 1 0.350222 0.0316841 0.764387
235 1 0.832591 0.278153 0.607931
1773 1 0.0687473 0.200313 0.730869
78 1 0.713374 0.450543 0.615272
246 1 0.595943 0.494821 0.766371
986 1 0.0424422 0.0837046 0.728344
933 1 0.184451 0.216716 0.629258
1535 1 0.171106 0.194745 0.785239
567 1 0.873699 0.144119 0.757022
709 1 0.79593 0.376942 0.675277
510 1 0.364524 0.349916 0.605976
813 1 0.316416 0.0923589 0.706316
1458 1 0.0830671 0.00482582 0.645905
34 1 0.659955 0.383948 0.610943
1533 1 0.0309087 0.251479 0.621918
437 1 0.866521 0.464817 0.661826
772 1 0.59629 0.0110563 0.627705
1130 1 0.103455 0.135092 0.737873
1414 1 0.615581 0.431654 0.680362
1216 1 0.870803 0.11718 0.653113
1406 1 0.61857 0.349988 0.69942
1263 1 0.2479 0.252938 0.751096
74 1 0.456393 0.260293 0.741519
249 1 0.970804 0.0163446 0.744955
703 1 0.828188 0.230905 0.76132
2031 1 0.332954 0.121113 0.622036
1916 1 0.571544 0.160564 0.682784
782 1 0.828779 0.238152 0.672434
2040 1 0.4852 0.12732 0.681904
572 1 0.427621 0.0510141 0.762803
791 1 0.145243 0.377011 0.724478
1917 1 0.608982 0.19247 0.757194
2016 1 0.160476 0.284472 0.607958
1661 1 0.348727 0.154855 0.689947
1507 1 0.290716 0.29627 0.648081
513 1 0.0648194 0.363801 0.716299
1002 1 0.806825 0.117219 0.607424
1869 1 0.684076 0.176858 0.771295
953 1 0.142527 0.399232 0.627618
1167 1 0.895349 0.273033 0.652058
600 1 0.273299 0.150633 0.660111
226 1 0.523602 0.295773 0.768431
872 1 0.638512 0.499919 0.675719
1881 1 0.00419402 0.0852546 0.607557
2002 1 0.701315 0.312 0.706543
592 1 0.982163 0.206214 0.661336
16 1 0.0687089 0.0104217 0.788745
221 1 0.526715 0.121265 0.619844
269 1 0.516462 0.311824 0.653667
267 1 0.490855 0.0223908 0.732108
165 1 0.688754 0.407132 0.69615
1200 1 0.131168 0.273759 0.726978
1474 1 0.507562 0.425007 0.608832
732 1 0.488749 0.239482 0.674395
987 1 0.247669 0.450849 0.665897
1591 1 0.641497 0.107816 0.776923
700 1 0.746919 0.4474 0.74186
1049 1 0.563199 0.0040861 0.698367
871 1 0.712465 0.0744671 0.730732
467 1 0.601966 0.0834799 0.636863
284 1 0.192405 0.0245239 0.70942
1711 1 0.28174 0.0916625 0.772799
243 1 0.544214 0.0893988 0.75332
1835 1 0.905664 0.23699 0.750204
1889 1 0.541097 0.0810047 0.68174
1013 1 0.642443 0.125256 0.696743
1619 1 0.478425 0.347211 0.74019
2013 1 0.113587 0.206352 0.609699
1407 1 0.991047 0.0106076 0.602192
1873 1 0.282213 0.211492 0.62673
1865 1 0.11955 0.0567056 0.739905
254 1 0.783666 0.297821 0.685379
44 1 0.413759 0.19789 0.636741
1832 1 0.344201 0.342381 0.712214
1326 1 0.269932 0.346161 0.70515
1209 1 0.418714 0.130139 0.659175
748 1 0.438569 0.41166 0.723486
1303 1 0.382104 0.263887 0.737038
76 1 0.512938 0.453456 0.790452
878 1 0.999389 0.370081 0.676074
1626 1 0.150557 0.0528297 0.650357
1752 1 0.135248 0.126591 0.658222
712 1 0.957665 0.270401 0.790851
1683 1 0.081112 0.0771942 0.668433
248 1 0.767894 0.217916 0.709274
138 1 0.91912 0.377053 0.646862
1809 1 0.985955 0.102618 0.78512
1359 1 0.770538 0.379521 0.760864
1119 1 0.822004 0.159932 0.699344
1684 1 0.213551 0.109639 0.627632
108 1 0.453145 0.0559144 0.67738
797 1 0.611036 0.0614321 0.71408
1985 1 0.839124 0.00896539 0.784331
1974 1 0.597325 0.315007 0.766065
747 1 0.748249 0.290717 0.765686
561 1 0.561735 0.155849 0.798395
1012 1 0.945398 0.144087 0.622911
25 1 0.342269 0.0515985 0.644256
94 1 0.14183 0.475519 0.654029
1774 1 0.0300294 0.458948 0.777477
1292 1 0.89492 0.322429 0.727637
160 1 0.859261 0.299946 0.793257
2033 1 0.25391 0.17877 0.765043
773 1 0.779554 0.455319 0.67238
1320 1 0.817108 0.189649 0.619807
436 1 0.393939 0.418885 0.603624
80 1 0.920855 0.0690186 0.702239
492 1 0.520066 0.0314775 0.615096
1523 1 0.254325 0.471022 0.756422
1187 1 0.498675 0.459441 0.684162
1229 1 0.694552 0.237538 0.729708
1339 1 0.772618 0.117644 0.740207
130 1 0.836542 0.0299105 0.633146
70 1 0.304271 0.421147 0.731817
1746 1 0.889786 0.473644 0.779165
1416 1 0.0331786 0.497337 0.682722
1888 1 0.297873 0.321431 0.768915
1987 1 0.911725 0.031674 0.629549
570 1 0.21492 0.183339 0.698733
1075 1 0.432573 0.329702 0.687646
1241 1 0.982604 0.133315 0.688582
1982 1 0.882605 0.380856 0.779149
1282 1 0.093729 0.325373 0.789127
1854 1 0.31141 0.226288 0.705323
376 1 0.751772 0.367138 0.621723
1891 1 0.767891 0.0525076 0.667185
204 1 0.848966 0.342998 0.643423
1645 1 0.957682 0.275034 0.698565
876 1 0.210619 0.328913 0.748296
645 1 0.567188 0.392177 0.626747
1405 1 0.665772 0.0304797 0.762415
1592 1 0.175767 0.124185 0.728698
2009 1 0.0146086 0.308865 0.740882
403 1 0.649028 0.426922 0.767902
485 1 0.367864 0.412729 0.695388
672 1 0.353435 0.180146 0.766956
1653 1 0.911147 0.415353 0.719258
1817 1 0.654769 0.274909 0.781765
423 1 0.056904 0.400928 0.639253
1579 1 0.324891 0.462955 0.664391
1609 1 0.82903 0.342122 0.740705
391 1 0.566868 0.488528 0.70012
591 1 0.0373191 0.151445 0.777458
1137 1 0.00496864 0.0382346 0.673775
839 1 0.0207298 0.378103 0.775105
385 1 0.241031 0.0803327 0.703207
855 1 0.647914 0.226403 0.667396
144 1 0.444887 0.479404 0.76375
1253 1 0.61616 0.448426 0.607433
1116 1 0.596529 0.281362 0.700588
1399 1 0.946532 0.164241 0.772631
1833 1 0.827899 0.0851718 0.701809
472 1 0.839578 0.420208 0.735385
148 1 0.0260674 0.426945 0.711508
1741 1 0.886794 0.0664225 0.766763
1291 1 0.105166 0.430686 0.79196
844 1 0.96754 0.466462 0.656141
1221 1 0.977466 0.479229 0.732585
164 1 0.706233 0.114646 0.630068
1246 1 0.665368 0.312358 0.643619
863 1 0.452562 0.39751 0.795676
1051 1 0.886699 0.215228 0.606809
529 1 0.232078 0.275981 0.600583
1840 1 0.960532 0.42596 0.79666
490 1 0.999045 0.426794 0.603623
205 1 0.73883 0.173446 0.601381
957 1 0.682016 0.105478 0.929759
1681 1 0.965377 0.182357 0.842911
413 1 0.428836 0.327205 0.930391
1096 1 0.477304 0.00467657 0.917975
392 1 0.56442 0.412948 0.916706
1615 1 0.396054 0.19231 0.831
1940 1 0.467973 0.16629 0.864981
327 1 0.107883 0.0705756 0.896594
256 1 0.86843 0.484989 0.96152
158 1 0.247652 0.0594903 0.841699
1340 1 0.666896 0.268003 0.869179
89 1 0.533487 0.0349208 0.86018
1478 1 0.031883 0.0992939 0.948726
1127 1 0.705298 0.352031 0.961622
992 1 0.229262 0.472084 0.826182
1305 1 0.505174 0.461004 0.873651
1380 1 0.465375 0.464959 0.989937
658 1 0.607454 0.39312 0.83712
244 1 0.293735 0.129443 0.895928
1502 1 0.72825 0.224769 0.818014
520 1 0.976709 0.0330135 0.815702
1185 1 0.0531694 0.462967 0.97151
1158 1 0.98672 0.470851 0.923512
1423 1 0.775123 0.396545 0.980908
1941 1 0.261357 0.373655 0.928819
832 1 0.793668 0.13202 0.929571
1872 1 0.480898 0.364691 0.898136
1613 1 0.67369 0.341576 0.890749
1818 1 0.225351 0.365689 0.853814
1316 1 0.327149 0.354177 0.853815
203 1 0.380615 0.2527 0.896165
359 1 0.0877528 0.0601436 0.977489
1668 1 0.728872 0.151228 0.895726
1179 1 0.176953 0.0522301 0.853971
1181 1 0.862756 0.289731 0.879022
1330 1 0.275164 0.222473 0.892379
407 1 0.07873 0.47844 0.850465
778 1 0.831821 0.0473641 0.932428
386 1 0.617496 0.471538 0.928922
565 1 0.88731 0.352878 0.911329
347 1 0.404549 0.0472293 0.898116
354 1 0.568615 0.0127812 0.940046
1281 1 0.106491 0.161635 0.809908
1971 1 0.439929 0.205146 0.933159
303 1 0.606077 0.188004 0.906943
862 1 0.807416 0.470344 0.80663
381 1 0.863017 0.150827 0.960466
1171 1 0.906486 0.433831 0.924635
765 1 0.434749 0.367387 0.993839
1864 1 0.122426 0.205435 0.91513
1712 1 0.675569 0.179893 0.844397
434 1 0.460843 0.121418 0.930331
1015 1 0.750152 0.495797 0.9304
1547 1 0.536349 0.464627 0.965972
360 1 0.166431 0.0890555 0.950916
1368 1 0.841588 0.419379 0.997307
1727 1 0.0484475 0.0340319 0.86637
446 1 0.12721 0.434462 0.959806
1977 1 0.859144 0.397978 0.857931
1671 1 0.520005 0.116189 0.845611
541 1 0.480016 0.311126 0.842236
526 1 0.620573 0.125087 0.980857
1491 1 0.207002 0.45533 0.98275
1464 1 0.866298 0.107936 0.898013
840 1 0.598349 0.214487 0.83679
1844 1 0.0261496 0.401746 0.937435
268 1 0.687717 0.0181072 0.923463