LAMMPS (15 Sep 2022)
OMP_NUM_THREADS environment is not set. Defaulting to 1 thread. (src/comm.cpp:98)
  using 1 OpenMP thread(s) per MPI task
# 2d WCA system, random initial configuration

#variable density equal 0.5
variable initial_temperature equal 3.0
variable final_temperature equal 0.1
variable dt equal 0.01
variable tau equal 100*${dt}
variable tau equal 100*0.01
variable thermo_time equal 50000*${dt}
variable thermo_time equal 50000*0.01
variable equil_steps equal 50000
variable run_steps equal 100000

units           lj
atom_style      atomic
dimension       3

lattice         fcc ${density}
lattice         fcc 0.9
Lattice spacing in x,y,z = 1.6441414 1.6441414 1.6441414
region          box block 0 8 0 8 0 8
# number of atom types
create_box      1 box
Created orthogonal box = (0 0 0) to (13.153131 13.153131 13.153131)
  1 by 2 by 5 MPI processor grid
create_atoms    1 box
Created 2048 atoms
  using lattice units in orthogonal box = (0 0 0) to (13.153131 13.153131 13.153131)
  create_atoms CPU = 0.000 seconds
mass 1 1.0

velocity all create ${initial_temperature} 12345
velocity all create 3 12345

pair_style      lj/cut 1.0
#type_1 type_2 epsilon sigma cutoff
pair_coeff      1 1 10.0 0.89089871814 1.0
pair_modify shift yes

timestep ${dt}
timestep 0.01
thermo ${thermo_time}
thermo 500

fix 1 all nvt temp ${initial_temperature} ${initial_temperature} ${tau}
fix 1 all nvt temp 3 ${initial_temperature} ${tau}
fix 1 all nvt temp 3 3 ${tau}
fix 1 all nvt temp 3 3 1
run ${equil_steps}
run 50000
Generated 0 of 0 mixed pair_coeff terms from geometric mixing rule
Neighbor list info ...
  update: every = 1 steps, delay = 0 steps, check = yes
  max neighbors/atom: 2000, page size: 100000
  master list distance cutoff = 1.3
  ghost atom cutoff = 1.3
  binsize = 0.65, bins = 21 21 21
  1 neighbor lists, perpetual/occasional/extra = 1 0 0
  (1) pair lj/cut, perpetual
      attributes: half, newton on
      pair build: half/bin/atomonly/newton
      stencil: half/bin/3d
      bin: standard
Per MPI rank memory allocation (min/avg/max) = 3.083 | 3.088 | 3.09 Mbytes
   Step          Temp          E_pair         E_mol          TotEng         Press     
         0   3              0              0              4.4978027      2.6986816    
       500   3.1109976      1.3215788      0              5.9857965      17.65911     
      1000   3.0530364      1.3842299      0              5.9615485      18.13372     
      1500   3.0855184      1.3243054      0              5.950323       17.511449    
      2000   3.0913994      1.4505558      0              6.0853907      18.897709    
      2500   3.0493682      1.3338589      0              5.9056779      17.857663    
      3000   3.1299411      1.3286036      0              6.0212229      17.86754     
      3500   3.0221659      1.3982394      0              5.9292748      18.281208    
      4000   3.0255725      1.304185       0              5.8403278      17.382192    
      4500   2.9318597      1.3200799      0              5.7157221      17.362311    
      5000   2.9748094      1.2863806      0              5.7464158      17.314585    
      5500   2.923633       1.3579534      0              5.7412615      17.760871    
      6000   2.985495       1.3457265      0              5.8217824      17.551728    
      6500   3.0148896      1.3481068      0              5.868233       17.904824    
      7000   3.0633817      1.3295167      0              5.9223456      17.686733    
      7500   2.9650111      1.2965232      0              5.7418682      17.164546    
      8000   2.9921709      1.3290006      0              5.8150654      17.578047    
      8500   2.9486129      1.3305801      0              5.7513398      17.714086    
      9000   3.0245484      1.2659203      0              5.8005276      17.174237    
      9500   2.9303413      1.3944751      0              5.7878408      18.247524    
     10000   2.9820133      1.3798677      0              5.8507035      18.143114    
     10500   3.0787433      1.2981814      0              5.9140414      17.622998    
     11000   3.0789181      1.3167342      0              5.9328564      17.488739    
     11500   3.0666521      1.3419771      0              5.9397091      17.787747    
     12000   3.0710058      1.3170994      0              5.9213588      17.717619    
     12500   3.0097517      1.2417118      0              5.754135       16.890977    
     13000   2.9026261      1.3334075      0              5.6852208      17.799921    
     13500   2.9687943      1.3525308      0              5.8035479      17.778352    
     14000   2.9795768      1.3894081      0              5.856591       18.146604    
     14500   2.96922        1.3519297      0              5.803585       17.760014    
     15000   3.0414619      1.3715282      0              5.9314934      17.991574    
     15500   2.9793541      1.2321514      0              5.6990003      16.909512    
     16000   3.0176735      1.3162834      0              5.8405835      17.494378    
     16500   2.97589        1.3754471      0              5.8371025      17.943857    
     17000   3.0251673      1.3390377      0              5.8745729      17.857458    
     17500   3.0503595      1.3231375      0              5.8964426      17.744199    
     18000   2.9512435      1.2367437      0              5.6614474      16.935251    
     18500   2.9914884      1.2996543      0              5.7846959      17.560432    
     19000   2.9946715      1.2973816      0              5.7871956      17.371626    
     19500   3.021252       1.275305       0              5.8049701      17.465922    
     20000   3.073732       1.3215503      0              5.9298971      17.737372    
     20500   3.0327966      1.3971137      0              5.9440874      18.290185    
     21000   3.0330711      1.4141784      0              5.9615636      18.366166    
     21500   3.1157308      1.3088273      0              5.9801415      17.459949    
     22000   2.9715807      1.3732971      0              5.8284917      18.073521    
     22500   3.0317365      1.3256333      0              5.8710176      17.667846    
     23000   3.0365825      1.2790773      0              5.8317271      17.390306    
     23500   2.9748526      1.3217604      0              5.7818605      17.575401    
     24000   3.0833899      1.3383596      0              5.9611861      17.882385    
     24500   2.9529551      1.3362189      0              5.7634887      17.805342    
     25000   3.0322405      1.3403277      0              5.8864676      17.862875    
     25500   3.0517949      1.3454443      0              5.9209014      17.898773    
     26000   3.1731031      1.2599194      0              6.01725        17.421039    
     26500   3.1063462      1.2972538      0              5.9544978      17.612663    
     27000   3.0109533      1.4331596      0              5.9473842      18.632261    
     27500   3.1071227      1.3306679      0              5.9890762      17.70231     
     28000   3.0744849      1.3109623      0              5.9204379      17.724553    
     28500   3.041608       1.2907231      0              5.8509073      17.389307    
     29000   2.98376        1.2835512      0              5.7570059      17.25992     
     29500   2.9660522      1.2811428      0              5.7280487      17.183043    
     30000   2.9733623      1.2644047      0              5.7222704      17.172378    
     30500   2.9503463      1.3986704      0              5.822029       18.248835    
     31000   3.086684       1.2869074      0              5.9146726      17.400081    
     31500   3.0528231      1.3446788      0              5.9216775      17.918865    
     32000   2.9717416      1.3840137      0              5.8394496      17.978678    
     32500   2.9897447      1.3102817      0              5.792709       17.490916    
     33000   2.9970053      1.2970958      0              5.7904086      17.345595    
     33500   3.022739       1.29419        0              5.8260846      17.253601    
     34000   2.9736449      1.3890939      0              5.8473833      18.19117     
     34500   2.972229       1.3135368      0              5.7697033      17.50704     
     35000   3.0606354      1.2385782      0              5.8272896      17.033654    
     35500   2.9367334      1.3357071      0              5.7386562      17.614403    
     36000   2.9895662      1.3626059      0              5.8447656      18.004586    
     36500   3.104902       1.4101867      0              6.0652656      18.393669    
     37000   3.0018711      1.3551989      0              5.8558068      17.970037    
     37500   3.0217288      1.3130059      0              5.843386       17.540315    
     38000   3.0593646      1.3997603      0              5.9865664      18.258919    
     38500   3.0187759      1.3372308      0              5.8631837      17.853669    
     39000   3.0571211      1.3115552      0              5.8949977      17.713945    
     39500   3.0674114      1.3421607      0              5.9410311      17.799908    
     40000   3.0204657      1.3278518      0              5.8563382      17.697861    
     40500   3.0753649      1.3013365      0              5.9121313      17.390273    
     41000   3.009754       1.2593944      0              5.7718209      17.064166    
     41500   2.955029       1.2989177      0              5.7292969      17.423979    
     42000   3.0117115      1.34506        0              5.8604214      17.759048    
     42500   3.0530099      1.2918243      0              5.869103       17.350301    
     43000   2.9381855      1.3586922      0              5.7638184      17.840032    
     43500   2.9490285      1.3390325      0              5.7604154      17.599434    
     44000   2.975614       1.2767661      0              5.7380078      17.226332    
     44500   2.9927334      1.2506099      0              5.737518       16.944066    
     45000   2.9919513      1.3008343      0              5.7865699      17.548521    
     45500   2.9919367      1.4103703      0              5.896084       18.303195    
     46000   3.0734437      1.3198538      0              5.9277683      17.580711    
     46500   2.9964246      1.3276869      0              5.8201292      17.690794    
     47000   3.0175552      1.3239961      0              5.8481188      17.651453    
     47500   3.0547152      1.2387127      0              5.8185481      16.984218    
     48000   3.0872952      1.2627223      0              5.8914039      17.267455    
     48500   3.0813118      1.2974488      0              5.9171598      17.491336    
     49000   3.009938       1.3722267      0              5.8849292      18.152407    
     49500   3.1310722      1.2644541      0              5.9587692      17.519421    
     50000   3.0527739      1.3630025      0              5.9399275      18.063584    
Loop time of 3.6745 on 10 procs for 50000 steps with 2048 atoms

Performance: 11756691.082 tau/day, 13607.281 timesteps/s, 27.868 Matom-step/s
99.5% CPU use with 10 MPI tasks x 1 OpenMP threads

MPI task timing breakdown:
Section |  min time  |  avg time  |  max time  |%varavg| %total
---------------------------------------------------------------
Pair    | 0.39448    | 0.40102    | 0.41679    |   1.2 | 10.91
Neigh   | 1.895      | 1.9038     | 1.9246     |   0.6 | 51.81
Comm    | 0.94043    | 0.96033    | 0.97177    |   0.9 | 26.13
Output  | 0.001362   | 0.0017776  | 0.0054383  |   2.9 |  0.05
Modify  | 0.24358    | 0.2534     | 0.26087    |   1.1 |  6.90
Other   |            | 0.1542     |            |       |  4.20

Nlocal:          204.8 ave         216 max         197 min
Histogram: 1 1 1 4 0 1 0 0 1 1
Nghost:          471.4 ave         482 max         456 min
Histogram: 2 0 0 1 0 1 1 1 3 1
Neighs:          867.2 ave         924 max         830 min
Histogram: 1 3 1 1 1 0 1 0 1 1

Total # of neighbors = 8672
Ave neighs/atom = 4.234375
Neighbor list builds = 20274
Dangerous builds = 0

unfix 1
dump           1 all atom ${run_steps} 3dWCA_T${final_temperature}_d${density}_N${run_steps}.lammpstrj
dump           1 all atom 100000 3dWCA_T${final_temperature}_d${density}_N${run_steps}.lammpstrj
dump           1 all atom 100000 3dWCA_T0.1_d${density}_N${run_steps}.lammpstrj
dump           1 all atom 100000 3dWCA_T0.1_d0.9_N${run_steps}.lammpstrj
dump           1 all atom 100000 3dWCA_T0.1_d0.9_N100000.lammpstrj
dump           2 all dcd ${thermo_time} 3dWCA_T${final_temperature}_d${density}_N${run_steps}.dcd
dump           2 all dcd 500 3dWCA_T${final_temperature}_d${density}_N${run_steps}.dcd
dump           2 all dcd 500 3dWCA_T0.1_d${density}_N${run_steps}.dcd
dump           2 all dcd 500 3dWCA_T0.1_d0.9_N${run_steps}.dcd
dump           2 all dcd 500 3dWCA_T0.1_d0.9_N100000.dcd
fix 1 all nvt temp ${initial_temperature} ${final_temperature} ${tau}
fix 1 all nvt temp 3 ${final_temperature} ${tau}
fix 1 all nvt temp 3 0.1 ${tau}
fix 1 all nvt temp 3 0.1 1

run ${run_steps}
run 100000
Generated 0 of 0 mixed pair_coeff terms from geometric mixing rule
Per MPI rank memory allocation (min/avg/max) = 3.141 | 3.142 | 3.143 Mbytes
   Step          Temp          E_pair         E_mol          TotEng         Press     
     50000   3.0527739      1.3630025      0              5.9399275      18.063584    
     50500   3.0396979      1.2871857      0              5.8445062      17.334934    
     51000   2.9971081      1.3219077      0              5.8153747      17.57532     
     51500   3.0010972      1.2729296      0              5.7723773      17.132633    
     52000   3.02748        1.3746778      0              5.9136804      18.16337     
     52500   2.9075869      1.2555379      0              5.6147887      16.917647    
     53000   2.9037612      1.2441513      0              5.5976664      16.845603    
     53500   2.8503165      1.2582683      0              5.5316555      17.026528    
     54000   2.8599055      1.2048292      0              5.4925928      16.385148    
     54500   2.7791123      1.341556       0              5.508189       17.672749    
     55000   2.9052491      1.184826       0              5.5405718      16.414264    
     55500   2.9028783      1.2506504      0              5.6028416      16.839389    
     56000   2.8261563      1.2762096      0              5.513374       17.121666    
     56500   2.8796487      1.2037779      0              5.5211419      16.569048    
     57000   2.7755374      1.1942109      0              5.3554842      16.323046    
     57500   2.7863571      1.1169036      0              5.2943984      15.832036    
     58000   2.8067875      1.1799071      0              5.3880326      16.322615    
     58500   2.750616       1.2094181      0              5.3333274      16.530987    
     59000   2.7053857      1.1893479      0              5.2454449      16.119118    
     59500   2.7133126      1.1863197      0              5.2543014      16.096919    
     60000   2.6642361      1.1778682      0              5.1722709      16.253003    
     60500   2.7025543      1.1546383      0              5.2064904      15.817388    
     61000   2.6541029      1.2244241      0              5.2036346      16.438197    
     61500   2.6309773      1.2173768      0              5.1619157      16.323589    
     62000   2.629273       1.1554915      0              5.0974752      15.872016    
     62500   2.6969041      1.0521589      0              5.0955399      15.115489    
     63000   2.6645219      1.2057941      0              5.2006254      16.443391    
     63500   2.6141686      1.1598071      0              5.0791453      15.792504    
     64000   2.6666788      1.1051804      0              5.1032455      15.44202     
     64500   2.5035509      1.1202865      0              4.8737791      15.539386    
     65000   2.5970104      1.0703382      0              4.9639517      15.216381    
     65500   2.6178246      1.0760397      0              5.0008593      15.208589    
     66000   2.5799533      1.0550998      0              4.92314        15.035737    
     66500   2.5493785      1.1301269      0              4.9523274      15.635351    
     67000   2.5091353      1.0386679      0              4.8005331      14.748413    
     67500   2.4909751      0.99034547     0              4.7249836      14.394391    
     68000   2.3325148      1.1240169      0              4.6210807      15.421646    
     68500   2.3746378      1.0691755      0              4.6293929      14.945792    
     69000   2.4308788      1.0599189      0              4.7044567      14.952839    
     69500   2.4654781      0.99481637     0              4.6912278      14.465417    
     70000   2.3729417      1.0443248      0              4.6019993      14.681048    
     70500   2.3692223      1.0527357      0              4.6048339      14.806684    
     71000   2.3904755      1.039849       0              4.6238114      14.576508    
     71500   2.3759834      1.0196526      0              4.5818874      14.517936    
     72000   2.3717871      1.056448       0              4.6123914      14.576303    
     72500   2.3894033      1.0117038      0              4.5940587      14.531712    
     73000   2.4087186      0.98623801     0              4.5975518      14.272333    
     73500   2.3612784      1.0019811      0              4.5421693      14.359685    
     74000   2.3097721      0.99735563     0              4.460322       14.360521    
     74500   2.3065098      0.96391386     0              4.4219892      14.001387    
     75000   2.2971231      0.96695888     0              4.4109611      14.001597    
     75500   2.3072777      1.0227215      0              4.481948       14.562704    
     76000   2.2908586      0.99186369     0              4.4264738      14.129123    
     76500   2.2646727      0.91689957     0              4.3122499      13.515078    
     77000   2.2255265      0.95686025     0              4.29352        13.820381    
     77500   2.1827213      0.99648734     0              4.2689706      14.249106    
     78000   2.1706964      0.97115164     0              4.2256063      13.992857    
     78500   2.1793563      0.93908089     0              4.2065192      13.792316    
     79000   2.1102402      0.94517904     0              4.1089937      13.610219    
     79500   2.0795794      0.95456094     0              4.0724069      13.786977    
     80000   2.065851       0.90462161     0              4.001885       13.238603    
     80500   2.0918754      0.91780778     0              4.0540887      13.563116    
     81000   2.0893893      0.90203452     0              4.0345882      13.262857    
     81500   2.1184571      0.86321172     0              4.0393457      13.0088      
     82000   2.100523       0.89300077     0              4.0422468      13.196768    
     82500   2.0521445      0.84977608     0              3.9264898      12.715828    
     83000   2.0327959      0.81309148     0              3.8607964      12.61121     
     83500   2.0717165      0.80115986     0              3.9072172      12.423208    
     84000   2.0558559      0.86112689     0              3.9434051      12.793174    
     84500   1.9983569      0.84505375     0              3.8411254      12.665017    
     85000   2.0367438      0.83503263     0              3.8886566      12.634522    
     85500   1.9713817      0.84362483     0              3.7992535      12.689841    
     86000   1.9546281      0.79435805     0              3.7248685      12.155275    
     86500   1.8992505      0.80758659     0              3.6550713      12.226228    
     87000   1.9404114      0.76014728     0              3.6693432      11.872417    
     87500   1.9091262      0.76996732     0              3.6322583      11.892091    
     88000   1.8403206      0.7979972      0              3.5571302      11.963248    
     88500   1.841245       0.77799186     0              3.5385108      11.906912    
     89000   1.86642        0.78140244     0              3.5796655      11.955118    
     89500   1.8695511      0.70623794     0              3.5091952      11.222467    
     90000   1.8357812      0.76581965     0              3.5181468      11.894032    
     90500   1.8689801      0.71554082     0              3.5176421      11.386343    
     91000   1.7644358      0.79608236     0              3.4414438      11.974626    
     91500   1.7950955      0.78774693     0              3.4790755      11.991488    
     92000   1.8143578      0.6873366      0              3.4075444      10.861934    
     92500   1.7940544      0.70893063     0              3.3986982      11.373101    
     93000   1.7683744      0.74597464     0              3.397241       11.357428    
     93500   1.7946508      0.74202835     0              3.4326901      11.493694    
     94000   1.7070977      0.73605173     0              3.2954479      11.33365     
     94500   1.737385       0.68811037     0              3.2929153      11.065718    
     95000   1.7341326      0.67746302     0              3.2773918      10.806192    
     95500   1.7059971      0.72265409     0              3.2804002      11.246899    
     96000   1.6698073      0.66551588     0              3.1690039      10.727302    
     96500   1.6389881      0.65621345     0              3.1134952      10.634633    
     97000   1.6566358      0.61664286     0              3.1003831      10.35281     
     97500   1.6383355      0.68256253     0              3.1388659      10.747472    
     98000   1.6721876      0.66596892     0              3.1730256      10.61613     
     98500   1.5598704      0.65946267     0              2.9981258      10.434415    
     99000   1.5830092      0.62003954     0              2.9933939      10.113191    
     99500   1.5730932      0.63325855     0              2.9917462      10.246809    
    100000   1.5659569      0.59422663     0              2.942015       9.9484542    
    100500   1.5489278      0.60008944     0              2.9223467      9.9811128    
    101000   1.5171429      0.60192963     0              2.8765327      9.935449     
    101500   1.4769588      0.63145099     0              2.8458074      10.372131    
    102000   1.485332       0.60830725     0              2.8352174      9.9841194    
    102500   1.521869       0.54410963     0              2.8257984      9.355548     
    103000   1.4489471      0.64387073     0              2.8162301      10.32201     
    103500   1.4537109      0.59124418     0              2.7707457      9.7992699    
    104000   1.4441529      0.55983482     0              2.7250065      9.6033021    
    104500   1.4402151      0.57521099     0              2.7344788      9.6330952    
    105000   1.4706498      0.54885872     0              2.7537562      9.4315923    
    105500   1.3817871      0.57277262     0              2.6444412      9.5375464    
    106000   1.397472       0.558877       0              2.6540615      9.3495899    
    106500   1.387497       0.55091268     0              2.6311419      9.3346694    
    107000   1.3577259      0.55121776     0              2.5868122      9.3633905    
    107500   1.346487       0.54746283     0              2.5662072      9.2346412    
    108000   1.3438554      0.49816842     0              2.5129673      8.7620897    
    108500   1.3371905      0.50621209     0              2.5110184      8.8117433    
    109000   1.3358306      0.50655854     0              2.509326       8.7669402    
    109500   1.2700989      0.47974318     0              2.3839613      8.5173725    
    110000   1.2501421      0.47923992     0              2.3535374      8.4694904    
    110500   1.228789       0.47190476     0              2.3141882      8.3129175    
    111000   1.2148495      0.46428155     0              2.285666       8.2100719    
    111500   1.221276       0.47165756     0              2.3026771      8.284072     
    112000   1.2221557      0.43880062     0              2.271139       7.9997497    
    112500   1.2142589      0.42819309     0              2.248692       7.9804992    
    113000   1.1271979      0.42581255     0              2.1157837      7.8613507    
    113500   1.1531241      0.41873027     0              2.1475718      7.6558985    
    114000   1.1553493      0.41597065     0              2.1481485      7.6622756    
    114500   1.1359765      0.46681346     0              2.1699462      8.2315208    
    115000   1.1235266      0.43442207     0              2.1188891      7.7388436    
    115500   1.1152001      0.43514969     0              2.1071331      7.8359606    
    116000   1.0889675      0.4160488      0              2.0487025      7.6120576    
    116500   1.0862412      0.44669832     0              2.0752645      7.9761815    
    117000   1.0412222      0.40071501     0              1.9617857      7.3327299    
    117500   1.0102577      0.3920742      0              1.9067208      7.3472832    
    118000   1.023435       0.38258814     0              1.9169911      7.1523173    
    118500   1.0403066      0.3672817      0              1.9269797      6.961293     
    119000   1.0181419      0.36111723     0              1.8875843      6.8751473    
    119500   0.99488475     0.35919822     0              1.8507967      6.7807142    
    120000   0.94132082     0.35044583     0              1.7617376      6.6539985    
    120500   0.94135738     0.35397863     0              1.7653252      6.804891     
    121000   0.93770426     0.31965837     0              1.725528       6.2862997    
    121500   0.90978235     0.3269197      0              1.6909269      6.4699489    
    122000   0.91151183     0.31443199     0              1.6810321      6.4047018    
    122500   0.90866263     0.29557283     0              1.6579012      6.0369852    
    123000   0.89106796     0.31716669     0              1.653116       6.3033691    
    123500   0.88439932     0.31021858     0              1.6361698      6.2406155    
    124000   0.86954488     0.3065111      0              1.6101915      6.2332634    
    124500   0.84261897     0.28747606     0              1.5507874      5.8747784    
    125000   0.8090633      0.30950553     0              1.5225079      6.0947474    
    125500   0.79807465     0.27026079     0              1.4667882      5.6835433    
    126000   0.78896109     0.28465775     0              1.4675215      5.8221988    
    126500   0.80147        0.26459216     0              1.4662102      5.5678096    
    127000   0.78151815     0.24529459     0              1.4169994      5.3452658    
    127500   0.75050977     0.27474419     0              1.3999592      5.6237711    
    128000   0.71413565     0.24036548     0              1.3110459      5.1924627    
    128500   0.72198872     0.23046586     0              1.3129201      5.1148709    
    129000   0.71709632     0.22347479     0              1.2985941      4.9948364    
    129500   0.69030682     0.23046831     0              1.2654229      4.9924783    
    130000   0.67125793     0.22867826     0              1.2350735      4.9837589    
    130500   0.65082161     0.21682278     0              1.1925785      4.8125363    
    131000   0.64907099     0.21338572     0              1.1865168      4.7361476    
    131500   0.63007395     0.19917694     0              1.1438264      4.531117     
    132000   0.63129502     0.19383969     0              1.1403198      4.5336736    
    132500   0.61473459     0.22122976     0              1.1428814      4.8184599    
    133000   0.58028336     0.18561939     0              1.0556194      4.3293302    
    133500   0.57792543     0.17882875     0              1.0452936      4.2310279    
    134000   0.5469892      0.20451705     0              1.0246002      4.5487142    
    134500   0.54710607     0.17043094     0              0.99068933     4.0957238    
    135000   0.54122717     0.18079033     0              0.99223468     4.2184559    
    135500   0.5074225      0.15994142     0              0.92070352     3.9001338    
    136000   0.50371939     0.16022        0              0.91543014     3.8881631    
    136500   0.49770137     0.15076601     0              0.89695354     3.7794296    
    137000   0.47715703     0.13882199     0              0.85420805     3.5700892    
    137500   0.46769374     0.13720607     0              0.83840413     3.5626574    
    138000   0.4508308      0.13506119     0              0.81097719     3.4624967    
    138500   0.4385675      0.12851081     0              0.78604085     3.3426433    
    139000   0.42386584     0.12206309     0              0.7575514      3.2174814    
    139500   0.41261296     0.11935715     0              0.73797439     3.1817888    
    140000   0.3853922      0.10215902     0              0.67996505     2.8993487    
    140500   0.37239939     0.11004311     0              0.66836944     2.9948792    
    141000   0.35898685     0.10767815     0              0.64589549     2.9486044    
    141500   0.34167301     0.089197025    0              0.60145629     2.6260091    
    142000   0.33192308     0.094569899    0              0.59221141     2.7050084    
    142500   0.32177101     0.084326919    0              0.56674777     2.5652665    
    143000   0.30827263     0.078944135    0              0.5411273      2.3965527    
    143500   0.28575881     0.067458239    0              0.49588716     2.0950227    
    144000   0.27504871     0.063707817    0              0.47607943     2.0443774    
    144500   0.25852773     0.067571576    0              0.45517382     2.1525784    
    145000   0.24618558     0.060916564    0              0.43001463     2.0097401    
    145500   0.22925911     0.053203582    0              0.39692433     1.8271503    
    146000   0.21365632     0.049317527    0              0.36964552     1.7527342    
    146500   0.20606679     0.046523389    0              0.35547264     1.6684934    
    147000   0.18394094     0.041902715    0              0.3176794      1.554093     
    147500   0.17543003     0.035868536    0              0.29888509     1.3954998    
    148000   0.15984679     0.03333768     0              0.27299079     1.292613     
    148500   0.14728096     0.02568403     0              0.24649759     1.134927     
    149000   0.13066422     0.025377753    0              0.22127837     1.1001444    
    149500   0.11635433     0.021722341    0              0.19616861     1.0012611    
    150000   0.10263959     0.016488492    0              0.1703727      0.83556584   
Loop time of 5.83447 on 10 procs for 100000 steps with 2048 atoms

Performance: 14808530.800 tau/day, 17139.503 timesteps/s, 35.102 Matom-step/s
99.5% CPU use with 10 MPI tasks x 1 OpenMP threads

MPI task timing breakdown:
Section |  min time  |  avg time  |  max time  |%varavg| %total
---------------------------------------------------------------
Pair    | 0.70618    | 0.71632    | 0.74257    |   1.6 | 12.28
Neigh   | 2.6533     | 2.661      | 2.6878     |   0.6 | 45.61
Comm    | 1.6372     | 1.6673     | 1.6906     |   1.1 | 28.58
Output  | 0.025976   | 0.026096   | 0.026989   |   0.2 |  0.45
Modify  | 0.47336    | 0.48574    | 0.50467    |   1.5 |  8.33
Other   |            | 0.278      |            |       |  4.77

Nlocal:          204.8 ave         210 max         198 min
Histogram: 1 1 2 0 0 1 0 1 2 2
Nghost:          469.7 ave         486 max         454 min
Histogram: 1 1 1 0 3 0 2 0 1 1
Neighs:          920.1 ave         975 max         875 min
Histogram: 1 1 2 1 0 3 0 0 0 2

Total # of neighbors = 9201
Ave neighs/atom = 4.4926758
Neighbor list builds = 28286
Dangerous builds = 0
Total wall time: 0:00:09
