ITEM: TIMESTEP
100000
ITEM: NUMBER OF ATOMS
400
ITEM: BOX BOUNDS pp pp pp
0.0000000000000000e+00 2.8284271247461902e+01
0.0000000000000000e+00 2.8284271247461902e+01
-7.0710678118654757e-01 7.0710678118654757e-01
ITEM: ATOMS id type xs ys zs
170 1 0.0155751 0.0868956 0.5
52 1 0.145231 0.111279 0.5
332 1 0.423372 0.0770096 0.5
241 1 0.186321 0.0739666 0.5
347 1 0.260933 0.082208 0.5
320 1 0.0858554 0.0638456 0.5
229 1 0.350877 0.0590573 0.5
330 1 0.0428621 0.129989 0.5
26 1 0.490626 0.1019 0.5
178 1 0.3257 0.129542 0.5
136 1 0.433365 0.115581 0.5
140 1 0.478224 0.0383389 0.5
125 1 0.26911 0.0428344 0.5
182 1 0.195935 0.0269471 0.5
164 1 0.394632 0.0424833 0.5
218 1 0.299862 0.0578277 0.5
3 1 0.272027 0.135992 0.5
289 1 0.430589 0.0204556 0.5
19 1 0.106056 0.0971393 0.5
356 1 0.216105 0.104874 0.5
220 1 0.0304435 0.00699287 0.5
205 1 0.180364 0.115335 0.5
304 1 0.127461 0.0674504 0.5
131 1 0.390074 0.118436 0.5
392 1 0.478927 0.00295998 0.5
400 1 0.163681 0.0442861 0.5
314 1 0.0998869 0.019349 0.5
254 1 0.251689 0.210877 0.5
245 1 0.207238 0.199156 0.5
37 1 0.163356 0.250926 0.5
353 1 0.104336 0.163288 0.5
130 1 0.484627 0.226667 0.5
230 1 0.00984045 0.163221 0.5
360 1 0.118222 0.199112 0.5
186 1 0.289172 0.194474 0.5
391 1 0.305374 0.23789 0.5
50 1 0.0481414 0.255033 0.5
387 1 0.0446885 0.171911 0.5
21 1 0.323498 0.202281 0.5
73 1 0.495135 0.177761 0.5
102 1 0.161704 0.211502 0.5
379 1 0.183001 0.174515 0.5
80 1 0.149254 0.163727 0.5
53 1 0.384732 0.152303 0.5
234 1 0.239068 0.263677 0.5
372 1 0.202041 0.232765 0.5
180 1 0.366329 0.186146 0.5
149 1 0.0507787 0.213925 0.5
93 1 0.332524 0.164026 0.5
95 1 0.43157 0.201785 0.5
67 1 0.0218624 0.282969 0.5
251 1 0.208995 0.143899 0.5
30 1 0.0839032 0.244509 0.5
24 1 0.0760363 0.279167 0.5
23 1 0.454398 0.270291 0.5
352 1 0.42116 0.153842 0.5
187 1 0.00775175 0.24512 0.5
362 1 0.455887 0.172149 0.5
349 1 0.364731 0.24226 0.5
252 1 0.0570068 0.368306 0.5
189 1 0.171359 0.324545 0.5
112 1 0.11709 0.34734 0.5
336 1 0.229941 0.364773 0.5
56 1 0.263795 0.337376 0.5
154 1 0.483339 0.29648 0.5
146 1 0.32169 0.380119 0.5
354 1 0.116471 0.386968 0.5
366 1 0.0114928 0.410981 0.5
364 1 0.429713 0.313253 0.5
198 1 0.156994 0.420522 0.5
266 1 0.0881137 0.323825 0.5
12 1 0.355024 0.415836 0.5
11 1 0.319889 0.29292 0.5
45 1 0.0209699 0.360677 0.5
162 1 0.253659 0.401639 0.5
367 1 0.0501182 0.320483 0.5
48 1 0.372628 0.323554 0.5
33 1 0.348227 0.357558 0.5
271 1 0.453262 0.366424 0.5
299 1 0.277247 0.299653 0.5
32 1 0.321041 0.415843 0.5
335 1 0.206556 0.290496 0.5
351 1 0.413056 0.549638 0.5
105 1 0.231334 0.478945 0.5
207 1 0.028014 0.533159 0.5
123 1 0.0684984 0.518246 0.5
90 1 0.190637 0.551415 0.5
390 1 0.144568 0.525702 0.5
274 1 0.205215 0.451947 0.5
15 1 0.481424 0.489504 0.5
142 1 0.373951 0.525794 0.5
370 1 0.0423116 0.493087 0.5
10 1 0.452654 0.443681 0.5
145 1 0.0749308 0.433488 0.5
290 1 0.101994 0.543627 0.5
316 1 0.194905 0.483941 0.5
384 1 0.232463 0.549346 0.5
305 1 0.0717038 0.473727 0.5
255 1 0.496536 0.527485 0.5
248 1 0.410311 0.477126 0.5
273 1 0.288146 0.427649 0.5
156 1 0.34413 0.545996 0.5
63 1 0.293528 0.534722 0.5
34 1 0.262819 0.50239 0.5
68 1 0.267852 0.563475 0.5
97 1 0.0133213 0.445052 0.5
196 1 0.104649 0.462951 0.5
79 1 0.347287 0.451464 0.5
106 1 0.154952 0.559884 0.5
7 1 0.240636 0.614262 0.5
359 1 0.106933 0.636465 0.5
264 1 0.364572 0.601648 0.5
29 1 0.415478 0.670697 0.5
227 1 0.031926 0.65999 0.5
322 1 0.356303 0.679305 0.5
342 1 0.185146 0.623488 0.5
22 1 0.0142189 0.705656 0.5
281 1 0.473775 0.634452 0.5
201 1 0.385387 0.655121 0.5
51 1 0.293027 0.603469 0.5
82 1 0.433314 0.633115 0.5
361 1 0.0650295 0.649285 0.5
283 1 0.327914 0.615342 0.5
328 1 0.477459 0.702315 0.5
324 1 0.435005 0.69946 0.5
94 1 0.150619 0.602678 0.5
337 1 0.115509 0.590349 0.5
103 1 0.0323876 0.623169 0.5
137 1 0.160722 0.648879 0.5
8 1 0.25787 0.697979 0.5
6 1 0.318373 0.673121 0.5
4 1 0.202425 0.651832 0.5
383 1 0.361504 0.713981 0.5
239 1 0.492687 0.604251 0.5
62 1 0.0684237 0.581931 0.5
282 1 0.404805 0.586254 0.5
231 1 0.149308 0.68519 0.5
397 1 0.115342 0.696753 0.5
295 1 0.470335 0.576027 0.5
262 1 0.155007 0.768098 0.5
165 1 0.0455943 0.738659 0.5
66 1 0.245297 0.751681 0.5
315 1 0.351738 0.76709 0.5
286 1 0.409874 0.742626 0.5
343 1 0.43882 0.793375 0.5
224 1 0.0739024 0.827788 0.5
256 1 0.176623 0.798612 0.5
311 1 0.0825847 0.719333 0.5
25 1 0.269198 0.835516 0.5
250 1 0.230443 0.813763 0.5
127 1 0.316776 0.834014 0.5
9 1 0.317463 0.730971 0.5
119 1 0.36539 0.827844 0.5
85 1 0.461234 0.824793 0.5
345 1 0.282845 0.724528 0.5
118 1 0.123635 0.814592 0.5
318 1 0.0142691 0.766808 0.5
81 1 0.211949 0.765417 0.5
386 1 0.198474 0.856172 0.5
306 1 0.0317828 0.823732 0.5
261 1 0.469416 0.744405 0.5
203 1 0.26532 0.800658 0.5
132 1 0.0705931 0.79414 0.5
288 1 0.100891 0.763898 0.5
325 1 0.30092 0.765542 0.5
296 1 0.495287 0.832281 0.5
247 1 0.415596 0.834089 0.5
260 1 0.184263 0.725543 0.5
135 1 0.500033 0.762916 0.5
206 1 0.239638 0.872728 0.5
321 1 0.499181 0.928229 0.5
346 1 0.458511 0.97445 0.5
36 1 0.0294169 0.932001 0.5
385 1 0.24622 0.96571 0.5
111 1 0.361343 0.963758 0.5
355 1 0.485256 0.870727 0.5
181 1 0.280204 0.927486 0.5
70 1 0.00402065 0.902848 0.5
139 1 0.45864 0.892053 0.5
177 1 0.38549 0.896087 0.5
263 1 0.311042 0.902305 0.5
270 1 0.201337 0.921045 0.5
155 1 0.111012 0.982196 0.5
312 1 0.16898 0.889105 0.5
188 1 0.198682 0.95554 0.5
399 1 0.360683 0.92843 0.5
307 1 0.296421 0.866057 0.5
277 1 0.39558 0.94057 0.5
128 1 0.11996 0.880791 0.5
43 1 0.125428 0.942024 0.5
44 1 0.353252 0.868461 0.5
377 1 0.0788782 0.901831 0.5
382 1 0.157408 0.966197 0.5
104 1 0.039331 0.892631 0.5
179 1 0.087273 0.95464 0.5
167 1 0.492823 0.965927 0.5
373 1 0.28677 0.98126 0.5
159 1 0.32365 0.992267 0.5
88 1 0.00397688 0.959512 0.5
398 1 0.523713 0.115806 0.5
35 1 0.925228 0.0948007 0.5
121 1 0.739558 0.0271204 0.5
371 1 0.694319 0.0446107 0.5
215 1 0.94844 0.008895 0.5
99 1 0.605784 0.0368816 0.5
326 1 0.867923 0.125794 0.5
38 1 0.683988 0.0783524 0.5
172 1 0.832138 0.121195 0.5
333 1 0.55905 0.00344516 0.5
285 1 0.868981 0.0838753 0.5
191 1 0.636161 0.0553308 0.5
257 1 0.736984 0.122883 0.5
278 1 0.902336 0.0588528 0.5
59 1 0.994232 0.0333885 0.5
193 1 0.798559 0.056863 0.5
202 1 0.781308 0.000840546 0.5
168 1 0.590541 0.123927 0.5
393 1 0.736032 0.0724594 0.5
18 1 0.568794 0.0838476 0.5
76 1 0.798527 0.117724 0.5
192 1 0.950147 0.0430988 0.5
303 1 0.960064 0.122473 0.5
210 1 0.864672 0.0376607 0.5
258 1 0.619873 0.000456342 0.5
58 1 0.771779 0.0821745 0.5
110 1 0.523092 0.0722989 0.5
200 1 0.645777 0.123051 0.5
160 1 0.529071 0.0255741 0.5
158 1 0.908248 0.0181491 0.5
27 1 0.924958 0.133079 0.5
74 1 0.819999 0.00317214 0.5
195 1 0.709881 0.00616579 0.5
144 1 0.883459 0.245477 0.5
313 1 0.890097 0.188902 0.5
100 1 0.557799 0.24995 0.5
199 1 0.935278 0.226313 0.5
339 1 0.70305 0.276469 0.5
219 1 0.50507 0.259348 0.5
284 1 0.850894 0.231288 0.5
69 1 0.966422 0.188102 0.5
153 1 0.830654 0.177776 0.5
115 1 0.74004 0.210339 0.5
216 1 0.744919 0.279229 0.5
235 1 0.577173 0.167542 0.5
126 1 0.822923 0.252001 0.5
39 1 0.775694 0.241242 0.5
124 1 0.997042 0.212361 0.5
16 1 0.816099 0.213887 0.5
389 1 0.737865 0.245576 0.5
86 1 0.560738 0.214869 0.5
225 1 0.519528 0.223315 0.5
185 1 0.686336 0.216525 0.5
54 1 0.596299 0.201489 0.5
280 1 0.61333 0.148885 0.5
267 1 0.535138 0.16836 0.5
122 1 0.851997 0.281074 0.5
340 1 0.791681 0.157332 0.5
308 1 0.73257 0.170755 0.5
194 1 0.754254 0.370437 0.5
96 1 0.573781 0.342861 0.5
17 1 0.645462 0.42725 0.5
14 1 0.576437 0.379462 0.5
31 1 0.79375 0.364977 0.5
61 1 0.930628 0.305104 0.5
300 1 0.916198 0.405904 0.5
240 1 0.908662 0.365589 0.5
243 1 0.616428 0.37476 0.5
91 1 0.782806 0.311794 0.5
275 1 0.975412 0.400451 0.5
232 1 0.716979 0.313008 0.5
394 1 0.659891 0.332972 0.5
380 1 0.868277 0.32359 0.5
71 1 0.943963 0.339166 0.5
244 1 0.903069 0.326627 0.5
184 1 0.754271 0.406172 0.5
358 1 0.99277 0.335166 0.5
269 1 0.66876 0.397665 0.5
357 1 0.695572 0.364147 0.5
302 1 0.506851 0.322285 0.5
237 1 0.62263 0.325883 0.5
47 1 0.538945 0.378571 0.5
151 1 0.828679 0.392051 0.5
134 1 0.800298 0.423662 0.5
60 1 0.816434 0.287049 0.5
223 1 0.716191 0.424168 0.5
388 1 0.669877 0.287298 0.5
174 1 0.898232 0.293567 0.5
317 1 0.592803 0.28754 0.5
310 1 0.836463 0.517922 0.5
117 1 0.523419 0.5713 0.5
350 1 0.814403 0.567384 0.5
114 1 0.774476 0.507885 0.5
292 1 0.905416 0.523617 0.5
75 1 0.885556 0.428758 0.5
348 1 0.963004 0.466233 0.5
183 1 0.864133 0.4723 0.5
213 1 0.740224 0.526044 0.5
301 1 0.94338 0.513001 0.5
319 1 0.759651 0.443186 0.5
204 1 0.975935 0.538888 0.5
323 1 0.673997 0.539663 0.5
369 1 0.565867 0.509427 0.5
109 1 0.785502 0.469642 0.5
331 1 0.924581 0.559107 0.5
28 1 0.57894 0.57118 0.5
65 1 0.581844 0.477077 0.5
395 1 0.616404 0.450929 0.5
42 1 0.508083 0.431173 0.5
365 1 0.920716 0.475834 0.5
20 1 0.517215 0.477342 0.5
212 1 0.668502 0.482498 0.5
78 1 0.932388 0.443413 0.5
190 1 0.831237 0.450137 0.5
376 1 0.719638 0.460857 0.5
297 1 0.870718 0.519424 0.5
298 1 0.625519 0.559116 0.5
138 1 0.850167 0.55399 0.5
57 1 0.586348 0.429611 0.5
55 1 0.741312 0.668077 0.5
163 1 0.811223 0.701915 0.5
233 1 0.726937 0.630754 0.5
228 1 0.540411 0.711786 0.5
40 1 0.532208 0.673598 0.5
208 1 0.830801 0.672039 0.5
133 1 0.797993 0.606849 0.5
46 1 0.595729 0.698241 0.5
13 1 0.557341 0.64975 0.5
291 1 0.762152 0.638488 0.5
169 1 0.705888 0.65854 0.5
147 1 0.958017 0.631025 0.5
253 1 0.682035 0.579467 0.5
108 1 0.665863 0.635151 0.5
396 1 0.629388 0.621861 0.5
246 1 0.700564 0.692395 0.5
157 1 0.912231 0.680315 0.5
327 1 0.868891 0.628993 0.5
116 1 0.592276 0.650344 0.5
101 1 0.949612 0.670141 0.5
338 1 0.882567 0.66682 0.5
375 1 0.812025 0.640626 0.5
368 1 0.6075 0.589985 0.5
197 1 0.546575 0.612609 0.5
148 1 0.652354 0.669664 0.5
238 1 0.970527 0.597756 0.5
84 1 0.98304 0.672789 0.5
150 1 0.92871 0.601225 0.5
214 1 0.960805 0.702471 0.5
329 1 0.850328 0.709126 0.5
89 1 0.935599 0.758202 0.5
217 1 0.887565 0.756367 0.5
49 1 0.65284 0.784572 0.5
83 1 0.815969 0.73877 0.5
143 1 0.859996 0.855203 0.5
279 1 0.887193 0.714712 0.5
41 1 0.757216 0.847377 0.5
87 1 0.76713 0.765759 0.5
293 1 0.801715 0.801766 0.5
129 1 0.668246 0.713991 0.5
92 1 0.959592 0.826654 0.5
242 1 0.72084 0.836463 0.5
222 1 0.609884 0.80502 0.5
107 1 0.683822 0.753626 0.5
120 1 0.571706 0.731501 0.5
64 1 0.83275 0.774998 0.5
268 1 0.914849 0.817404 0.5
276 1 0.683078 0.805201 0.5
287 1 0.54333 0.777032 0.5
344 1 0.64842 0.833337 0.5
141 1 0.992744 0.828663 0.5
226 1 0.744657 0.717112 0.5
113 1 0.565777 0.808613 0.5
173 1 0.930074 0.723713 0.5
363 1 0.583854 0.774974 0.5
166 1 0.631063 0.734575 0.5
77 1 0.976957 0.736395 0.5
272 1 0.801032 0.871038 0.5
378 1 0.91234 0.904696 0.5
98 1 0.652096 0.905901 0.5
72 1 0.528218 0.983301 0.5
176 1 0.859492 0.924675 0.5
341 1 0.743735 0.954745 0.5
211 1 0.561542 0.863077 0.5
152 1 0.95518 0.972203 0.5
5 1 0.885783 0.879543 0.5
171 1 0.772868 0.896179 0.5
236 1 0.66525 0.974861 0.5
221 1 0.630282 0.961848 0.5
265 1 0.78417 0.946077 0.5
309 1 0.970216 0.900973 0.5
259 1 0.53113 0.900377 0.5
1 1 0.588583 0.930135 0.5
175 1 0.591302 0.972821 0.5
374 1 0.942279 0.924865 0.5
381 1 0.715734 0.91527 0.5
2 1 0.707427 0.882303 0.5
209 1 0.547479 0.95034 0.5
334 1 0.822871 0.912328 0.5
249 1 0.822554 0.95167 0.5
161 1 0.974871 0.860354 0.5
294 1 0.873094 0.977482 0.5
