LAMMPS (15 Sep 2022)
OMP_NUM_THREADS environment is not set. Defaulting to 1 thread. (src/comm.cpp:98)
  using 1 OpenMP thread(s) per MPI task
# 2d WCA system, random initial configuration

#variable density equal 0.5
variable initial_temperature equal 3.0
variable final_temperature equal 0.1
variable dt equal 0.01
variable tau equal 100*${dt}
variable tau equal 100*0.01
variable thermo_time equal 50000*${dt}
variable thermo_time equal 50000*0.01
variable equil_steps equal 50000
variable run_steps equal 100000

units           lj
atom_style      atomic
dimension       2

lattice         sq ${density}
lattice         sq 0.5
Lattice spacing in x,y,z = 1.4142136 1.4142136 1.4142136
region          box block 0 20 0 20 -0.5 0.5
# number of atom types
create_box      1 box
Created orthogonal box = (0 0 -0.70710678) to (28.284271 28.284271 0.70710678)
  2 by 7 by 1 MPI processor grid
create_atoms    1 box
Created 400 atoms
  using lattice units in orthogonal box = (0 0 -0.70710678) to (28.284271 28.284271 0.70710678)
  create_atoms CPU = 0.006 seconds
mass 1 1.0

velocity all create ${initial_temperature} 12345
velocity all create 3 12345

pair_style      lj/cut 1.0
#type_1 type_2 epsilon sigma cutoff
pair_coeff      1 1 10.0 0.89089871814 1.0
pair_modify shift yes

timestep ${dt}
timestep 0.01
thermo ${thermo_time}
thermo 500

fix 1 all nvt temp ${initial_temperature} ${initial_temperature} ${tau}
fix 1 all nvt temp 3 ${initial_temperature} ${tau}
fix 1 all nvt temp 3 3 ${tau}
fix 1 all nvt temp 3 3 1
run ${equil_steps}
run 50000
Generated 0 of 0 mixed pair_coeff terms from geometric mixing rule
Neighbor list info ...
  update: every = 1 steps, delay = 0 steps, check = yes
  max neighbors/atom: 2000, page size: 100000
  master list distance cutoff = 1.3
  ghost atom cutoff = 1.3
  binsize = 0.65, bins = 44 44 3
  1 neighbor lists, perpetual/occasional/extra = 1 0 0
  (1) pair lj/cut, perpetual
      attributes: half, newton on
      pair build: half/bin/atomonly/newton
      stencil: half/bin/2d
      bin: standard
Per MPI rank memory allocation (min/avg/max) = 3.048 | 3.048 | 3.048 Mbytes
   Step          Temp          E_pair         E_mol          TotEng         Press     
         0   3              0              0              2.9925         1.49625      
       500   2.9895055      0.17912768     0              3.1611594      3.2407003    
      1000   2.8876371      0.2195009      0              3.0999189      3.8078803    
      1500   3.0513444      0.17777928     0              3.2214953      3.3570021    
      2000   3.2262131      0.13763455     0              3.3557821      3.0944793    
      2500   3.2883482      0.22694185     0              3.5070692      3.939293     
      3000   2.9989578      0.21383404     0              3.2052944      3.5549879    
      3500   2.9536891      0.17362095     0              3.1199259      3.1235997    
      4000   2.7737525      0.2056628      0              2.9724809      3.3998607    
      4500   2.8203945      0.17140454     0              2.9847481      3.1908892    
      5000   3.1276312      0.2324634      0              3.3522756      3.8174933    
      5500   3.038688       0.30510387     0              3.3361952      4.4023013    
      6000   3.0102238      0.21667517     0              3.2193734      3.4556954    
      6500   2.8099575      0.25120616     0              3.0541388      3.723615     
      7000   2.7612118      0.24203751     0              2.9963463      3.7342713    
      7500   2.9380682      0.20987765     0              3.1406007      3.4533446    
      8000   3.1074617      0.17470545     0              3.2743985      3.3793142    
      8500   2.9911284      0.27460142     0              3.258252       4.1933722    
      9000   3.1814846      0.25552091     0              3.4290518      4.0282642    
      9500   3.487787       0.25017253     0              3.72924        4.0050914    
     10000   3.1812799      0.18408351     0              3.3574102      3.3937477    
     10500   3.0445529      0.27777991     0              3.3147214      4.0462755    
     11000   3.0608521      0.21017306     0              3.2633731      3.5985538    
     11500   3.0971281      0.18932121     0              3.2787065      3.4492183    
     12000   2.8260706      0.24443748     0              3.0634429      3.7482776    
     12500   2.9826531      0.17673798     0              3.1519344      3.2732941    
     13000   2.799752       0.18618365     0              2.9789362      3.3985663    
     13500   2.9614449      0.21778071     0              3.171822       3.5340781    
     14000   2.8410013      0.20721537     0              3.0411142      3.4520802    
     14500   2.9733211      0.2273045      0              3.1931923      3.5750498    
     15000   2.9836343      0.18740714     0              3.1635823      3.1877838    
     15500   3.1223883      0.19830643     0              3.3128888      3.4665409    
     16000   3.1738946      0.18078348     0              3.3467434      3.4358103    
     16500   3.3886456      0.13903589     0              3.5192099      3.2558472    
     17000   3.3576948      0.23136715     0              3.5806677      3.8662285    
     17500   3.0176402      0.16053593     0              3.170632       3.2234151    
     18000   2.9718548      0.17569028     0              3.1401155      3.200472     
     18500   2.9376646      0.19212424     0              3.1224447      3.3816326    
     19000   3.0132575      0.1315609      0              3.1372852      2.9568511    
     19500   2.9535642      0.091053232    0              3.0372335      2.6303944    
     20000   2.8463144      0.13764267     0              2.9768413      2.8750904    
     20500   2.7723545      0.17195639     0              2.93738        3.2640748    
     21000   3.0688438      0.30500906     0              3.3661808      4.3044859    
     21500   2.9879719      0.23162338     0              3.2121253      3.7057618    
     22000   3.1437517      0.17883069     0              3.314723       3.3966179    
     22500   3.2623302      0.24391419     0              3.4980885      3.8980421    
     23000   3.1773125      0.1482415      0              3.3176108      3.1194103    
     23500   3.0362898      0.18446085     0              3.2131599      3.3732452    
     24000   3.08417        0.14614059     0              3.2226002      3.1804137    
     24500   2.9803959      0.21756268     0              3.1905076      3.534968     
     25000   2.8163383      0.24164585     0              3.0509433      3.5291136    
     25500   2.8457049      0.24703574     0              3.0856264      3.7259384    
     26000   2.9207853      0.16211155     0              3.0755948      3.1268401    
     26500   3.0985132      0.32927392     0              3.4200409      4.4476882    
     27000   3.003996       0.25989737     0              3.2563834      4.0457349    
     27500   3.1344858      0.22416888     0              3.3508184      3.6772748    
     28000   3.0495924      0.20310081     0              3.2450693      3.4149342    
     28500   3.1518796      0.22233202     0              3.3663319      3.9129077    
     29000   3.0444324      0.18450169     0              3.221323       3.4196441    
     29500   3.095295       0.21264859     0              3.3002054      3.561491     
     30000   3.0388234      0.20944496     0              3.2406713      3.3783511    
     30500   2.9524034      0.16677177     0              3.1117942      3.3217723    
     31000   2.7891222      0.1488317      0              2.9309811      2.9075182    
     31500   2.819502       0.26628783     0              3.0787411      4.0059094    
     32000   3.0034445      0.14925582     0              3.1451917      3.0337525    
     32500   2.9778929      0.25724281     0              3.2276909      3.7941394    
     33000   2.9891974      0.2191763      0              3.2009007      3.7291392    
     33500   2.8860228      0.22991315     0              3.1087209      3.8766122    
     34000   2.941938       0.21998873     0              3.1545719      3.5162579    
     34500   2.851018       0.18704233     0              3.0309328      3.3538124    
     35000   2.9697696      0.25885884     0              3.2212041      3.9251015    
     35500   3.2062007      0.13582159     0              3.3340068      3.0977055    
     36000   3.3542726      0.1845758      0              3.5304627      3.661132     
     36500   3.0714019      0.2708314      0              3.3345548      3.7795922    
     37000   3.0185593      0.18646284     0              3.1974757      3.3643242    
     37500   3.0380147      0.18921128     0              3.2196309      3.3754467    
     38000   3.0645481      0.20587899     0              3.2627657      3.3021107    
     38500   2.9848562      0.21574792     0              3.193142       3.6399735    
     39000   3.0833727      0.22624435     0              3.3019086      3.6538762    
     39500   2.966742       0.26969872     0              3.2290239      3.8037037    
     40000   3.0665452      0.13958856     0              3.1984673      2.9964618    
     40500   3.0314702      0.1608462      0              3.1847377      3.0508647    
     41000   2.870061       0.20181488     0              3.0647007      3.4846768    
     41500   2.7054096      0.12803803     0              2.8266841      2.8206604    
     42000   2.7183972      0.26729425     0              2.9788955      3.9280563    
     42500   3.0932259      0.13109184     0              3.2165847      2.9496551    
     43000   3.1719101      0.19635881     0              3.3603391      3.5014883    
     43500   3.0061861      0.22472951     0              3.2234002      3.6633764    
     44000   3.2071499      0.20689102     0              3.406023       3.6302974    
     44500   2.9871392      0.26831452     0              3.2479859      3.868907     
     45000   3.0501718      0.25551834     0              3.2980647      3.961956     
     45500   3.0743434      0.26707968     0              3.3337372      4.1325249    
     46000   3.0495848      0.17025141     0              3.2122122      3.1195347    
     46500   2.9259304      0.25489154     0              3.1735071      3.8131667    
     47000   3.0236126      0.27855651     0              3.2946101      4.1069526    
     47500   3.2679774      0.27626115     0              3.5360686      4.2164939    
     48000   3.2318988      0.15404038     0              3.3778595      3.1535642    
     48500   3.0953058      0.20173474     0              3.2893023      3.5363847    
     49000   3.0847138      0.25660871     0              3.3336107      3.8710454    
     49500   2.6694307      0.24177118     0              2.9045283      3.5352448    
     50000   2.8240683      0.12938755     0              2.9463957      2.8510406    
Loop time of 1.21539 on 14 procs for 50000 steps with 400 atoms

Performance: 35544231.652 tau/day, 41139.157 timesteps/s, 16.456 Matom-step/s
96.8% CPU use with 14 MPI tasks x 1 OpenMP threads

MPI task timing breakdown:
Section |  min time  |  avg time  |  max time  |%varavg| %total
---------------------------------------------------------------
Pair    | 0.02061    | 0.022442   | 0.033159   |   2.1 |  1.85
Neigh   | 0.051319   | 0.054409   | 0.072407   |   2.3 |  4.48
Comm    | 0.54468    | 0.63238    | 0.73563    |   7.0 | 52.03
Output  | 0.001955   | 0.0022739  | 0.0059911  |   2.2 |  0.19
Modify  | 0.20692    | 0.30159    | 0.38993    |  10.2 | 24.81
Other   |            | 0.2023     |            |       | 16.64

Nlocal:        28.5714 ave          32 max          25 min
Histogram: 2 1 0 0 4 3 0 1 1 2
Nghost:        27.4286 ave          34 max          21 min
Histogram: 2 0 2 0 2 1 5 1 0 1
Neighs:        27.4286 ave          38 max          20 min
Histogram: 2 2 2 1 1 4 0 0 0 2

Total # of neighbors = 384
Ave neighs/atom = 0.96
Neighbor list builds = 16960
Dangerous builds = 0

unfix 1
dump           1 all atom ${run_steps} 2dWCA_T${final_temperature}_d${density}_N${run_steps}.lammpstrj
dump           1 all atom 100000 2dWCA_T${final_temperature}_d${density}_N${run_steps}.lammpstrj
dump           1 all atom 100000 2dWCA_T0.1_d${density}_N${run_steps}.lammpstrj
dump           1 all atom 100000 2dWCA_T0.1_d0.5_N${run_steps}.lammpstrj
dump           1 all atom 100000 2dWCA_T0.1_d0.5_N100000.lammpstrj
dump           2 all dcd ${thermo_time} 2dWCA_T${final_temperature}_d${density}_N${run_steps}.dcd
dump           2 all dcd 500 2dWCA_T${final_temperature}_d${density}_N${run_steps}.dcd
dump           2 all dcd 500 2dWCA_T0.1_d${density}_N${run_steps}.dcd
dump           2 all dcd 500 2dWCA_T0.1_d0.5_N${run_steps}.dcd
dump           2 all dcd 500 2dWCA_T0.1_d0.5_N100000.dcd
fix 1 all nvt temp ${initial_temperature} ${final_temperature} ${tau}
fix 1 all nvt temp 3 ${final_temperature} ${tau}
fix 1 all nvt temp 3 0.1 ${tau}
fix 1 all nvt temp 3 0.1 1

run ${run_steps}
run 100000
Generated 0 of 0 mixed pair_coeff terms from geometric mixing rule
Per MPI rank memory allocation (min/avg/max) = 3.07 | 3.07 | 3.07 Mbytes
   Step          Temp          E_pair         E_mol          TotEng         Press     
     50000   2.8240683      0.12938755     0              2.9463957      2.8510406    
     50500   2.8907867      0.24532321     0              3.1288829      3.6573824    
     51000   2.8856353      0.26473463     0              3.1431559      3.7115245    
     51500   2.990468       0.23440263     0              3.2173945      3.76232      
     52000   2.911544       0.26307921     0              3.1673444      3.9097751    
     52500   3.0641835      0.23608624     0              3.2926093      3.751483     
     53000   2.9452157      0.2793222      0              3.2171749      3.8241392    
     53500   3.087324       0.22380025     0              3.3034059      3.8093808    
     54000   2.8690591      0.27941306     0              3.1412995      3.9069838    
     54500   2.9868219      0.221801       0              3.2011559      3.6278582    
     55000   3.0458828      0.18166397     0              3.2199321      3.3037176    
     55500   2.8739256      0.26376259     0              3.1305034      3.9734579    
     56000   2.8192583      0.18545206     0              2.9976622      3.3610283    
     56500   2.8686794      0.11446448     0              2.9759722      2.7930987    
     57000   2.7861486      0.1628895      0              2.9420727      2.9859725    
     57500   2.5413089      0.27916626     0              2.8141219      3.7170529    
     58000   2.6080167      0.1930455      0              2.7945421      3.2979155    
     58500   2.5566587      0.13620006     0              2.6864671      2.8242319    
     59000   2.6449454      0.25205341     0              2.8903865      3.6419317    
     59500   2.8287439      0.15508385     0              2.9767558      3.0284572    
     60000   2.860977       0.18004092     0              3.0338655      3.2364455    
     60500   3.0774356      0.25814512     0              3.3278872      3.9888202    
     61000   2.770994       0.32027054     0              3.084337       4.2380389    
     61500   2.6238532      0.26475322     0              2.8820468      3.7984219    
     62000   2.6849505      0.20285907     0              2.8810972      3.275661     
     62500   2.5721562      0.17582885     0              2.7415547      3.0951127    
     63000   2.3264601      0.25115669     0              2.5718006      3.5658466    
     63500   2.5676786      0.12976105     0              2.6910205      2.6030012    
     64000   2.5322154      0.20857495     0              2.7344599      3.3475021    
     64500   2.7155641      0.13352011     0              2.8422953      2.9261013    
     65000   2.814501       0.15743806     0              2.9649028      3.0558884    
     65500   2.6725507      0.15674443     0              2.8226138      2.9202963    
     66000   2.4588245      0.1742344      0              2.6269118      3.0240649    
     66500   2.4587046      0.13814828     0              2.5907061      2.7752564    
     67000   2.4185125      0.1444641      0              2.5569303      2.8123151    
     67500   2.3572152      0.21917904     0              2.5705012      3.3111548    
     68000   2.2491899      0.19477153     0              2.4383385      3.1352127    
     68500   2.6218989      0.17658421     0              2.7919284      3.0419211    
     69000   2.521284       0.2045608      0              2.7195416      3.2656816    
     69500   2.5472708      0.18783738     0              2.72874        3.0652331    
     70000   2.4848438      0.18635989     0              2.6649916      3.2067529    
     70500   2.5536545      0.19475204     0              2.7420224      3.4158014    
     71000   2.6167255      0.18745809     0              2.7976417      3.2815616    
     71500   2.3399376      0.19401354     0              2.5281013      2.9682347    
     72000   2.2653526      0.14626607     0              2.4059553      2.6804911    
     72500   2.2456551      0.13578989     0              2.3758309      2.6698342    
     73000   2.3746648      0.09044689     0              2.459175       2.1899116    
     73500   2.4726595      0.15278777     0              2.6192656      2.9717864    
     74000   2.4879217      0.14146117     0              2.623163       2.6027233    
     74500   2.3357881      0.1569814      0              2.4869301      2.8703689    
     75000   2.2799342      0.15206522     0              2.4262996      2.8064117    
     75500   2.2529561      0.15475694     0              2.4020806      2.7914196    
     76000   2.1625496      0.16443482     0              2.321578       2.7437677    
     76500   2.1549865      0.17261658     0              2.3222157      2.9147195    
     77000   2.0971518      0.098591337    0              2.1905002      2.1117255    
     77500   2.1638595      0.17398699     0              2.3324368      2.917923     
     78000   2.3127059      0.14310737     0              2.4500315      2.7463639    
     78500   2.2412445      0.12792751     0              2.3635689      2.4730168    
     79000   2.2573685      0.11825663     0              2.3699817      2.4455008    
     79500   2.2426049      0.14482107     0              2.3818194      2.6851232    
     80000   1.9964471      0.13074844     0              2.1222044      2.4587306    
     80500   2.0164869      0.16244066     0              2.1738863      2.6786636    
     81000   2.0449608      0.15400803     0              2.1938564      2.7210284    
     81500   2.0136967      0.16670398     0              2.1753664      2.7420143    
     82000   2.0114193      0.1063983      0              2.1127891      2.2586538    
     82500   2.1125128      0.13658352     0              2.243815       2.6118496    
     83000   2.2286237      0.13708915     0              2.3601413      2.6568006    
     83500   2.2283758      0.068671573    0              2.2914764      1.9167456    
     84000   2.0219796      0.13523635     0              2.1521611      2.5010193    
     84500   2.0880744      0.15813365     0              2.2409879      2.6728959    
     85000   2.0168775      0.13525279     0              2.1470881      2.5587722    
     85500   2.0083805      0.13049074     0              2.1338503      2.4459379    
     86000   2.0646212      0.069446397    0              2.128906       2.0181325    
     86500   1.9360024      0.099659575    0              2.030822       2.1415819    
     87000   1.8899784      0.14547059     0              2.030724       2.4782653    
     87500   1.8866214      0.14517245     0              2.0270773      2.4924231    
     88000   1.8349887      0.17054421     0              2.0009454      2.7526379    
     88500   1.8681291      0.10986883     0              1.9733276      2.2373581    
     89000   1.7161681      0.044863528    0              1.7567413      1.615963     
     89500   1.7025956      0.098215702    0              1.7965548      1.965817     
     90000   1.8561025      0.096652681    0              1.9481149      1.9943118    
     90500   1.8618564      0.14580104     0              2.0030028      2.4846585    
     91000   1.7960894      0.14539438     0              1.9369936      2.3644998    
     91500   1.94781        0.088311913    0              2.0312524      2.0791908    
     92000   2.065428       0.12913047     0              2.1893949      2.4223971    
     92500   1.8689481      0.12682007     0              1.9910958      2.3749292    
     93000   1.777871       0.1348493      0              1.9082756      2.3978931    
     93500   1.8765931      0.13848073     0              2.0103823      2.4353551    
     94000   1.7324857      0.14330941     0              1.8714639      2.4362097    
     94500   1.6028229      0.14048612     0              1.7393019      2.2244931    
     95000   1.6161594      0.084613019    0              1.696732       1.8598106    
     95500   1.6093875      0.11868083     0              1.7240448      2.2477023    
     96000   1.708258       0.12119973     0              1.825187       2.3387985    
     96500   1.7220763      0.14424533     0              1.8620164      2.4248653    
     97000   1.7458775      0.083844235    0              1.8253571      1.9870035    
     97500   1.6042684      0.13836856     0              1.7386262      2.3194783    
     98000   1.6892791      0.11973092     0              1.8047868      2.1626428    
     98500   1.6306013      0.068648538    0              1.6951734      1.735671     
     99000   1.7130293      0.065448647    0              1.7741954      1.749161     
     99500   1.6106653      0.063694413    0              1.6703331      1.6433029    
    100000   1.6827391      0.066290267    0              1.7448226      1.7687668    
    100500   1.5572859      0.082128134    0              1.6355208      1.8069318    
    101000   1.5181245      0.098949506    0              1.6132787      1.8811242    
    101500   1.44647        0.10388757     0              1.5467414      1.9767001    
    102000   1.3969697      0.079627331    0              1.4731046      1.6506503    
    102500   1.4146077      0.10751798     0              1.5185892      1.9970658    
    103000   1.4071058      0.073986758    0              1.4775748      1.7391798    
    103500   1.5037555      0.090611922    0              1.5906081      1.8849098    
    104000   1.5047553      0.073270096    0              1.5742636      1.692499     
    104500   1.4655223      0.10098572     0              1.5628442      1.9067076    
    105000   1.4404907      0.11126753     0              1.548157       2.1240218    
    105500   1.4132833      0.08629472     0              1.4960448      1.8022446    
    106000   1.3914742      0.066136006    0              1.4541315      1.5510103    
    106500   1.3797952      0.057289114    0              1.4336348      1.4972542    
    107000   1.3621284      0.054313529    0              1.4130366      1.4510133    
    107500   1.2580315      0.099165597    0              1.3540521      1.8169213    
    108000   1.2707873      0.053428273    0              1.3210386      1.3869659    
    108500   1.2517149      0.051308169    0              1.2998937      1.3482204    
    109000   1.3281602      0.10428498     0              1.4291248      1.9726295    
    109500   1.3541298      0.063222582    0              1.4139671      1.5323876    
    110000   1.3429937      0.04747883     0              1.387115       1.3414712    
    110500   1.2355124      0.081465423    0              1.3138891      1.709977     
    111000   1.2447406      0.038767784    0              1.2803965      1.2132525    
    111500   1.1796628      0.064270742    0              1.2409844      1.4355608    
    112000   1.11561        0.072479144    0              1.1853001      1.4446983    
    112500   1.0318518      0.045733523    0              1.0750057      1.304893     
    113000   1.1738797      0.054395817    0              1.2253408      1.288557     
    113500   1.2074496      0.055606454    0              1.2600374      1.3550571    
    114000   1.2107815      0.061186462    0              1.268941       1.5070469    
    114500   1.0859632      0.069126989    0              1.1523753      1.4735147    
    115000   1.0205167      0.053036351    0              1.0710018      1.2360558    
    115500   1.0846118      0.034406197    0              1.1163065      1.0202532    
    116000   1.0856014      0.086618458    0              1.1695059      1.6169646    
    116500   1.0741392      0.061191883    0              1.1326457      1.3328323    
    117000   1.1215593      0.038907683    0              1.1576631      1.1816299    
    117500   1.0949803      0.039804837    0              1.1320477      1.1803067    
    118000   1.0909437      0.056244012    0              1.1444603      1.3369057    
    118500   1.0542651      0.068834464    0              1.1204639      1.391474     
    119000   1.1005613      0.041958566    0              1.1397684      1.1042966    
    119500   1.0007518      0.052315139    0              1.050565       1.2988453    
    120000   1.0048846      0.057069666    0              1.0594421      1.3196134    
    120500   0.97736867     0.054811006    0              1.0297363      1.2610887    
    121000   0.95231893     0.049380538    0              0.99931867     1.2351665    
    121500   0.84926834     0.046066128    0              0.8932113      1.122505     
    122000   0.87855149     0.053172606    0              0.92952772     1.1712966    
    122500   0.85274777     0.027525899    0              0.8781418      0.91445674   
    123000   0.85907229     0.04477438     0              0.90169899     1.0907848    
    123500   0.83170237     0.042178906    0              0.87180202     1.1121018    
    124000   0.83541196     0.051629793    0              0.88495323     1.0447218    
    124500   0.79514536     0.034508042    0              0.82766554     0.9580641    
    125000   0.81557886     0.038931904    0              0.85247182     0.99249821   
    125500   0.76095157     0.047988214    0              0.80703741     1.0400844    
    126000   0.81757429     0.037521937    0              0.85305229     0.98700597   
    126500   0.85260857     0.047667027    0              0.89814408     1.1998146    
    127000   0.85104736     0.03171833     0              0.88063807     0.97913363   
    127500   0.73842658     0.044743079    0              0.78132359     1.0761477    
    128000   0.73641258     0.027237603    0              0.76180915     0.85050447   
    128500   0.69549003     0.025237002    0              0.7189883      0.77182458   
    129000   0.65557308     0.029622431    0              0.68355658     0.8014948    
    129500   0.6708716      0.05158795     0              0.72078237     1.0962987    
    130000   0.70900701     0.032096547    0              0.73933104     0.88700286   
    130500   0.67606194     0.047103991    0              0.72147578     0.99529454   
    131000   0.67440748     0.013867437    0              0.6865889      0.6113883    
    131500   0.5834905      0.036455517    0              0.61848729     0.83062203   
    132000   0.58976294     0.030870022    0              0.61915856     0.75964373   
    132500   0.54389138     0.032625299    0              0.57515695     0.78887485   
    133000   0.5910931      0.025961386    0              0.61557675     0.75215806   
    133500   0.58020874     0.020582943    0              0.59934116     0.6733158    
    134000   0.58443011     0.027844762    0              0.61081379     0.76162527   
    134500   0.59269289     0.017554691    0              0.60876585     0.66862578   
    135000   0.5676422      0.017683806    0              0.5839069      0.60432292   
    135500   0.53375239     0.021814266    0              0.55423228     0.68093778   
    136000   0.55716724     0.019634102    0              0.57540843     0.63647919   
    136500   0.48996988     0.014148046    0              0.502893       0.54695547   
    137000   0.45885487     0.014210182    0              0.47191791     0.5115833    
    137500   0.46201893     0.011629445    0              0.47249333     0.52961243   
    138000   0.44708795     0.018607096    0              0.46457733     0.56088003   
    138500   0.41425882     0.016799618    0              0.43002279     0.56472657   
    139000   0.41142243     0.015600873    0              0.42599475     0.55197636   
    139500   0.39194443     0.017313523    0              0.40827809     0.54954148   
    140000   0.38955341     0.016804753    0              0.40538428     0.55937858   
    140500   0.40539557     0.017164006    0              0.42154609     0.53318197   
    141000   0.36586299     0.013644276    0              0.3785926      0.49755146   
    141500   0.3380236      0.018161836    0              0.35534037     0.4955748    
    142000   0.31999503     0.01474317     0              0.33393821     0.47744191   
    142500   0.29999456     0.016867212    0              0.31611178     0.5150115    
    143000   0.28997249     0.0065610321   0              0.29580859     0.32820623   
    143500   0.28400225     0.0099854676   0              0.29327771     0.36661183   
    144000   0.26212162     0.0093510211   0              0.27081733     0.35104574   
    144500   0.25819815     0.0092379411   0              0.26679059     0.34593167   
    145000   0.26343725     0.010584139    0              0.27336279     0.37397911   
    145500   0.23047792     0.010149623    0              0.24005135     0.3604139    
    146000   0.22013092     0.004850453    0              0.22443105     0.24316399   
    146500   0.19818401     0.0058199236   0              0.20350848     0.28175115   
    147000   0.17499415     0.0051372709   0              0.17969393     0.23241124   
    147500   0.17103808     0.0054608428   0              0.17607132     0.22113477   
    148000   0.16377504     0.0025056897   0              0.16587129     0.17834304   
    148500   0.13162259     0.0064370085   0              0.13773054     0.22480884   
    149000   0.13190867     0.0017395478   0              0.13331845     0.13476929   
    149500   0.1213222      0.0019403983   0              0.12295929     0.12504406   
    150000   0.094681252    0.0014785445   0              0.095923094    0.10777873   
Loop time of 2.94793 on 14 procs for 100000 steps with 400 atoms

Performance: 29308701.551 tau/day, 33922.108 timesteps/s, 13.569 Matom-step/s
97.0% CPU use with 14 MPI tasks x 1 OpenMP threads

MPI task timing breakdown:
Section |  min time  |  avg time  |  max time  |%varavg| %total
---------------------------------------------------------------
Pair    | 0.035893   | 0.039637   | 0.055353   |   2.4 |  1.34
Neigh   | 0.074291   | 0.078236   | 0.10274    |   2.5 |  2.65
Comm    | 1.2053     | 1.4664     | 1.6726     |  10.4 | 49.74
Output  | 0.037672   | 0.037825   | 0.038583   |   0.1 |  1.28
Modify  | 0.49463    | 0.68938    | 0.94102    |  14.7 | 23.39
Other   |            | 0.6365     |            |       | 21.59

Nlocal:        28.5714 ave          34 max          22 min
Histogram: 1 0 2 0 2 2 4 1 0 2
Nghost:        27.0714 ave          33 max          23 min
Histogram: 1 0 2 4 1 3 2 0 0 1
Neighs:        27.6429 ave          41 max          16 min
Histogram: 1 1 1 1 4 3 1 0 0 2

Total # of neighbors = 387
Ave neighs/atom = 0.9675
Neighbor list builds = 24751
Dangerous builds = 0
Total wall time: 0:00:04
