LAMMPS (15 Sep 2022)
OMP_NUM_THREADS environment is not set. Defaulting to 1 thread. (src/comm.cpp:98)
  using 1 OpenMP thread(s) per MPI task
Lattice spacing in x,y,z = 1.0540926 1.0540926 1.0540926
Created orthogonal box = (0 0 -0.52704628) to (21.081851 21.081851 0.52704628)
  5 by 2 by 1 MPI processor grid
Created 400 atoms
  using lattice units in orthogonal box = (0 0 -0.52704628) to (21.081851 21.081851 0.52704628)
  create_atoms CPU = 0.000 seconds
Generated 0 of 0 mixed pair_coeff terms from geometric mixing rule
Neighbor list info ...
  update: every = 1 steps, delay = 0 steps, check = yes
  max neighbors/atom: 2000, page size: 100000
  master list distance cutoff = 1.3
  ghost atom cutoff = 1.3
  binsize = 0.65, bins = 33 33 2
  1 neighbor lists, perpetual/occasional/extra = 1 0 0
  (1) pair lj/cut, perpetual
      attributes: half, newton on
      pair build: half/bin/atomonly/newton
      stencil: half/bin/2d
      bin: standard
Setting up Verlet run ...
  Unit style    : lj
  Current step  : 0
  Time step     : 0.01
Per MPI rank memory allocation (min/avg/max) = 3.048 | 3.048 | 3.048 Mbytes
   Step          Temp          E_pair         E_mol          TotEng         Press     
         0   3              0              0              2.9925         2.69325      
       500   3.1476756      0.93690827     0              4.0767147      18.799074    
      1000   2.9063673      1.0554347      0              3.954536       19.805417    
      1500   2.8187537      1.0277926      0              3.8394994      19.543094    
      2000   2.8775459      1.082442       0              3.952794       20.232544    
      2500   3.0658172      0.995463       0              4.0536156      19.297007    
      3000   2.9869296      1.2107342      0              4.1901964      21.875783    
      3500   3.4098195      0.99547241     0              4.3967674      19.472644    
      4000   2.7582866      1.1752887      0              3.9266796      21.45416     
      4500   2.8519743      1.1572594      0              4.0021038      20.99246     
      5000   2.9233463      1.0884083      0              4.0044463      20.396404    
      5500   3.0117357      1.0199599      0              4.0241662      19.643687    
      6000   2.7577072      1.0563425      0              3.8071554      20.270297    
      6500   2.8492016      1.0496877      0              3.8917662      19.802193    
      7000   2.8401311      0.99893966     0              3.8319704      18.785014    
      7500   2.7704214      0.97123793     0              3.7347333      18.823822    
      8000   2.9263996      0.99640123     0              3.9154848      19.020831    
      8500   2.9254007      0.89777357     0              3.8158608      18.009669    
      9000   2.9032408      1.056546       0              3.9525287      20.146445    
      9500   2.9123371      0.87497062     0              3.7800269      17.719806    
     10000   2.8278093      1.018148       0              3.8388877      19.768257    
     10500   2.7661103      0.94565169     0              3.7048467      18.942688    
     11000   2.9511293      0.95681793     0              3.9005694      18.74307     
     11500   3.0246198      0.95995433     0              3.9770126      18.648083    
     12000   2.9090004      1.0782778      0              3.9800056      20.21363     
     12500   2.9025396      1.0799324      0              3.9752156      19.902441    
     13000   2.9051623      0.86957068     0              3.7674701      17.504934    
     13500   2.8502908      1.078553       0              3.921718       20.140373    
     14000   2.9015035      1.0587743      0              3.953024       19.772162    
     14500   3.0164672      0.86087767     0              3.8698037      17.696227    
     15000   2.8306661      1.0634576      0              3.8870471      20.253237    
     15500   2.8826563      0.8656252      0              3.7410749      17.620882    
     16000   2.7919878      0.86534606     0              3.6503539      17.543448    
     16500   2.7009898      0.94611662     0              3.6403539      18.247311    
     17000   2.9288114      0.90688128     0              3.8283707      18.327378    
     17500   2.9566013      1.0363732      0              3.9855831      20.076007    
     18000   2.9107071      0.98729561     0              3.890726       19.03146     
     18500   2.9568003      1.0417365      0              3.9911448      19.451643    
     19000   2.9986121      1.0626517      0              4.0537673      20.1337      
     19500   2.7422481      1.1113197      0              3.8467122      20.188622    
     20000   2.917037       0.96810754     0              3.8778519      18.536905    
     20500   2.9332471      0.99817609     0              3.92409        18.767178    
     21000   2.7032222      0.99969166     0              3.6961558      18.877659    
     21500   2.8306676      0.95571614     0              3.7793071      18.433777    
     22000   2.9326712      1.0348364      0              3.9601759      19.119332    
     22500   3.0254658      0.97994137     0              3.9978435      19.032256    
     23000   2.9935084      0.93957694     0              3.9256016      18.735844    
     23500   2.820089       0.93105153     0              3.7440903      18.458896    
     24000   2.8993197      0.99864592     0              3.8907173      19.273745    
     24500   2.7357712      0.9852963      0              3.7142281      18.977841    
     25000   2.9164045      0.94854243     0              3.8576559      18.176096    
     25500   2.8324325      1.0251425      0              3.8504939      19.618737    
     26000   2.7014217      0.94957829     0              3.6442465      18.727249    
     26500   2.7810978      0.89031636     0              3.6644615      17.571958    
     27000   3.0094745      0.92148998     0              3.9234408      18.571391    
     27500   3.117429       0.93153267     0              4.0411681      18.797674    
     28000   3.1466553      1.2159673      0              4.354756       22.481324    
     28500   3.1108311      1.1836148      0              4.2866688      21.687819    
     29000   3.0984506      1.0933902      0              4.1840946      20.655754    
     29500   3.0629606      0.94242421     0              3.9977274      18.738423    
     30000   2.9611127      1.1250471      0              4.078757       21.185779    
     30500   3.1004165      0.99849815     0              4.0911636      19.676429    
     31000   3.115881       1.0119893      0              4.1200806      19.532842    
     31500   3.1186913      1.0995305      0              4.210425       20.826511    
     32000   3.131976       1.1265895      0              4.2507355      21.632125    
     32500   3.0897532      0.92159054     0              4.0036194      18.258227    
     33000   3.0525863      0.94452533     0              3.9894802      18.462906    
     33500   3.0741516      1.0413527      0              4.1078189      20.189686    
     34000   3.1160757      1.1605268      0              4.2688123      21.285665    
     34500   3.3269485      1.1013738      0              4.4200049      20.285037    
     35000   3.1242839      0.92270876     0              4.0391819      19.013719    
     35500   3.0732809      1.020291       0              4.0858887      19.664822    
     36000   3.0818907      1.0270691      0              4.101255       20.243778    
     36500   2.9764701      1.0214387      0              3.9904676      19.343153    
     37000   3.1795212      0.98929259     0              4.160865       19.341102    
     37500   2.9305455      1.0731869      0              3.996406       19.436408    
     38000   2.9985596      0.82319108     0              3.8142543      17.187766    
     38500   2.966136       0.97266103     0              3.9313817      18.605234    
     39000   2.8718562      0.9371003      0              3.8017769      18.628171    
     39500   2.958318       0.9759378      0              3.92686        19.606199    
     40000   2.846493       0.96366668     0              3.8030435      19.082631    
     40500   3.0267814      0.87037018     0              3.8895847      17.976364    
     41000   2.9370868      1.0433552      0              3.9730994      20.172661    
     41500   3.0355428      1.0427988      0              4.0707527      19.980844    
     42000   3.0939641      1.0494604      0              4.1356896      19.449115    
     42500   3.2692626      1.0300489      0              4.2911384      20.045842    
     43000   3.2017815      1.0156707      0              4.2094477      19.966302    
     43500   3.0411269      0.82549621     0              3.8590203      17.403719    
     44000   2.7924364      1.0017681      0              3.7872235      18.950884    
     44500   2.5946224      0.93804337     0              3.5261793      18.223283    
     45000   2.997653       0.95507285     0              3.9452317      18.464017    
     45500   2.9877566      1.0433087      0              4.0235959      20.183283    
     46000   3.3052023      0.99098493     0              4.2879242      19.50187     
     46500   3.103575       0.97846715     0              4.0742832      19.009876    
     47000   3.2263631      1.0545256      0              4.2728228      19.895132    
     47500   3.0750524      0.95422811     0              4.0215929      19.043803    
     48000   3.0683177      0.96900328     0              4.0296502      18.695603    
     48500   2.8649536      0.99586796     0              3.8536592      19.417986    
     49000   2.8579924      1.1378606      0              3.988708       21.210876    
     49500   3.0018914      0.83441854     0              3.8288052      17.624952    
     50000   2.8519048      0.95854929     0              3.8033243      18.927416    
Loop time of 0.678657 on 10 procs for 50000 steps with 400 atoms

Performance: 63655096.581 tau/day, 73674.880 timesteps/s, 29.470 Matom-step/s
98.8% CPU use with 10 MPI tasks x 1 OpenMP threads

MPI task timing breakdown:
Section |  min time  |  avg time  |  max time  |%varavg| %total
---------------------------------------------------------------
Pair    | 0.055199   | 0.056365   | 0.057431   |   0.3 |  8.31
Neigh   | 0.091592   | 0.092367   | 0.093192   |   0.2 | 13.61
Comm    | 0.30583    | 0.31186    | 0.31572    |   0.7 | 45.95
Output  | 0.0010772  | 0.0014675  | 0.0048354  |   2.9 |  0.22
Modify  | 0.10956    | 0.1149     | 0.12152    |   1.1 | 16.93
Other   |            | 0.1017     |            |       | 14.99

Nlocal:             40 ave          42 max          37 min
Histogram: 1 0 1 0 2 0 2 0 1 3
Nghost:           41.3 ave          45 max          37 min
Histogram: 1 1 0 1 0 2 2 1 1 1
Neighs:           92.9 ave         101 max          87 min
Histogram: 2 1 1 1 1 1 1 1 0 1

Total # of neighbors = 929
Ave neighs/atom = 2.3225
Neighbor list builds = 16858
Dangerous builds = 0
Generated 0 of 0 mixed pair_coeff terms from geometric mixing rule
Setting up Verlet run ...
  Unit style    : lj
  Current step  : 50000
  Time step     : 0.01
Per MPI rank memory allocation (min/avg/max) = 3.071 | 3.071 | 3.071 Mbytes
   Step          Temp          E_pair         E_mol          TotEng         Press     
     50000   2.8519048      0.95854929     0              3.8033243      18.927416    
     50500   2.9662683      0.91192794     0              3.8707806      18.306316    
     51000   2.7635165      1.1014522      0              3.8580599      20.129885    
     51500   2.8744257      1.0643836      0              3.9316233      19.808945    
     52000   3.0536503      1.0676209      0              4.1136371      19.751872    
     52500   3.0520616      1.2244088      0              4.2688402      22.224397    
     53000   3.3245437      1.0185771      0              4.3348094      19.11306     
     53500   3.0708453      0.99076554     0              4.0539337      18.915759    
     54000   3.2646306      0.75370562     0              4.0101746      16.40272     
     54500   2.9290121      1.1463519      0              4.0680415      20.732065    
     55000   2.9138225      0.85091548     0              3.7574534      17.369543    
     55500   2.7483252      0.80752959     0              3.5489839      16.482575    
     56000   2.7637227      0.93050368     0              3.6873171      18.42044     
     56500   2.678063       0.94699233     0              3.6183601      18.148341    
     57000   2.832715       0.7036993      0              3.5293325      15.735203    
     57500   2.6041446      0.91100256     0              3.5086368      17.997463    
     58000   2.6569322      0.88117925     0              3.5314691      17.490402    
     58500   2.5098123      0.92310722     0              3.426645       17.722076    
     59000   2.5175889      0.92569946     0              3.4369944      17.917862    
     59500   2.5397418      0.87660759     0              3.41           17.26391     
     60000   2.6427878      0.89702942     0              3.5332102      17.935813    
     60500   2.5873663      1.0207387      0              3.6016366      19.620843    
     61000   2.7773309      0.94429724     0              3.7146848      17.922685    
     61500   2.8202767      0.87701343     0              3.6902394      17.369716    
     62000   2.5476441      0.77576816     0              3.3170431      16.162297    
     62500   2.6569465      0.79859597     0              3.4489001      16.577288    
     63000   2.5280059      0.79817165     0              3.3198575      16.218534    
     63500   2.5961219      0.84442891     0              3.4340605      17.305542    
     64000   2.5157805      0.94650188     0              3.4559929      18.374141    
     64500   2.6362089      0.96991596     0              3.5995343      18.503804    
     65000   2.5856883      0.80496049     0              3.3841845      16.639486    
     65500   2.4913493      0.89557746     0              3.3806983      17.249134    
     66000   2.654139       0.74605852     0              3.3935622      15.815864    
     66500   2.3691853      0.98877483     0              3.3520372      18.584458    
     67000   2.5292618      0.86887305     0              3.3918117      17.305364    
     67500   2.4854724      1.0267952      0              3.5060539      18.968788    
     68000   2.6464013      0.7287426      0              3.3685279      15.170664    
     68500   2.41398        0.82801556     0              3.2359606      16.864321    
     69000   2.4050982      0.83655971     0              3.2356452      17.536977    
     69500   2.5087174      0.76031307     0              3.2627586      15.890872    
     70000   2.4090603      0.88632604     0              3.2893637      17.300434    
     70500   2.4126819      0.85155248     0              3.2582027      16.814513    
     71000   2.0312993      0.75793996     0              2.784161       15.482175    
     71500   2.3074621      0.63072653     0              2.93242        14.195919    
     72000   2.3251065      0.70086524     0              3.020159       14.998571    
     72500   2.2332051      0.80559663     0              3.0332187      16.597579    
     73000   2.2255499      0.75330057     0              2.9732866      15.818395    
     73500   2.1321607      0.72850442     0              2.8553347      15.401981    
     74000   2.3745297      0.67439664     0              3.04299        14.394992    
     74500   2.2913239      0.79175661     0              3.0773522      16.319651    
     75000   2.3837171      0.77351049     0              3.1512683      15.940665    
     75500   2.5027057      0.81036459     0              3.3068135      16.158233    
     76000   2.3233589      0.87247767     0              3.1900281      17.084298    
     76500   2.3559869      0.76169759     0              3.1117946      15.94865     
     77000   2.3671064      0.6843006      0              3.0454892      14.77753     
     77500   2.2190718      0.75599322     0              2.9695173      15.374511    
     78000   2.4162814      0.65844099     0              3.0686816      14.325646    
     78500   2.3953388      0.7497966      0              3.139147       15.678049    
     79000   2.195905       0.66237997     0              2.8527952      14.594458    
     79500   2.1439857      0.72448901     0              2.8631147      14.612274    
     80000   2.1149512      0.78020543     0              2.8898693      15.704833    
     80500   2.0212286      0.57626269     0              2.5924383      12.848182    
     81000   1.9989297      0.67811156     0              2.672044       15.000474    
     81500   2.0967604      0.60442803     0              2.6959465      13.600443    
     82000   1.9479321      0.65443789     0              2.5975002      13.819735    
     82500   2.0680148      0.64479751     0              2.7076423      14.020372    
     83000   2.0300339      0.73487926     0              2.7598381      14.931107    
     83500   2.0481361      0.69436962     0              2.7373854      15.051533    
     84000   2.1194988      0.58958425     0              2.7037843      13.563535    
     84500   1.939377       0.60235546     0              2.536884       13.432337    
     85000   2.1070766      0.62848442     0              2.7302933      13.641697    
     85500   2.0292107      0.61996306     0              2.6441008      13.664217    
     86000   1.9694414      0.632063       0              2.5965808      13.410068    
     86500   1.8562571      0.73127058     0              2.5828871      15.432613    
     87000   1.8918019      0.68665362     0              2.573726       14.519606    
     87500   1.8809226      0.64399542     0              2.5202157      13.938079    
     88000   1.9149946      0.61183994     0              2.5220471      13.165057    
     88500   1.9625463      0.5768797      0              2.5345196      12.901615    
     89000   1.8523516      0.62748528     0              2.475206       13.773458    
     89500   1.9639271      0.54174711     0              2.5007644      12.514883    
     90000   1.9101386      0.62993644     0              2.5352997      13.836395    
     90500   1.8169783      0.64447327     0              2.4569092      13.901016    
     91000   1.7962871      0.6038187      0              2.3956151      13.345218    
     91500   1.8191283      0.57408863     0              2.3886691      12.986706    
     92000   1.7947711      0.55925954     0              2.3495437      12.767747    
     92500   1.8703493      0.61457166     0              2.4802451      13.349451    
     93000   1.7471428      0.62832003     0              2.371095       13.478563    
     93500   1.6868796      0.58890524     0              2.2715676      12.9876      
     94000   1.6584301      0.50325114     0              2.1575352      11.802764    
     94500   1.7297424      0.44170335     0              2.1671214      10.706917    
     95000   1.595575       0.56469539     0              2.1562815      12.060165    
     95500   1.6030131      0.48506226     0              2.0840678      11.512844    
     96000   1.7254993      0.41990786     0              2.1410934      10.745202    
     96500   1.6247184      0.45819794     0              2.0788546      11.004954    
     97000   1.7135363      0.58726725     0              2.2965197      13.270944    
     97500   1.7794682      0.49119646     0              2.266216       11.542373    
     98000   1.6081873      0.54786925     0              2.1520361      12.211567    
     98500   1.5736519      0.53061466     0              2.1003324      12.020311    
     99000   1.6615943      0.43427446     0              2.0917148      10.695124    
     99500   1.6221407      0.49709313     0              2.1151784      11.69172     
    100000   1.5584071      0.52536348     0              2.0798745      11.947384    
    100500   1.6387654      0.46230315     0              2.0969716      11.027091    
    101000   1.4076182      0.48788149     0              1.8919806      11.262663    
    101500   1.4853907      0.42394315     0              1.9056204      10.185571    
    102000   1.4405836      0.43842734     0              1.8754095      10.638267    
    102500   1.345605       0.42071906     0              1.76296        10.055705    
    103000   1.4980266      0.3825783      0              1.8768598      10.079569    
    103500   1.4694485      0.42452449     0              1.8902993      10.298944    
    104000   1.508422       0.36364476     0              1.8682957      9.4718555    
    104500   1.4292903      0.45586448     0              1.8815816      10.58321     
    105000   1.4479814      0.39033769     0              1.8346991      9.9146427    
    105500   1.3361305      0.42640273     0              1.7591929      10.316921    
    106000   1.3579564      0.34070206     0              1.6952636      8.9833746    
    106500   1.2640494      0.48056233     0              1.7414516      10.912654    
    107000   1.2522772      0.4491646      0              1.6983111      10.655497    
    107500   1.3389638      0.32362102     0              1.6592374      9.0229995    
    108000   1.2531498      0.35593212     0              1.605949       9.2194637    
    108500   1.3255212      0.35490518     0              1.6771126      9.3154189    
    109000   1.2712616      0.42311969     0              1.6912031      10.114472    
    109500   1.3397715      0.36624623     0              1.7026683      9.606941     
    110000   1.268646       0.35074287     0              1.6162173      9.0473476    
    110500   1.2421033      0.34537463     0              1.5843727      9.1243824    
    111000   1.2210823      0.33511761     0              1.5531472      8.4592615    
    111500   1.1372624      0.346779       0              1.4811982      8.7127065    
    112000   1.1772912      0.28939646     0              1.4637444      8.2701316    
    112500   1.1328829      0.28074197     0              1.4107927      8.0883919    
    113000   1.112229       0.28489004     0              1.3943385      7.9539838    
    113500   1.1344127      0.30059337     0              1.43217        8.122834     
    114000   1.1067806      0.29893301     0              1.4029467      8.3065423    
    114500   1.107999       0.26061145     0              1.3658404      7.3985468    
    115000   1.0518852      0.28578462     0              1.3350401      7.7269741    
    115500   0.98838156     0.2841815      0              1.2700921      7.9887894    
    116000   1.0466583      0.27662016     0              1.3206618      7.608885     
    116500   1.0285601      0.29298384     0              1.3189726      8.0865148    
    117000   1.0649496      0.30234073     0              1.3646279      8.1972452    
    117500   1.1062561      0.28747124     0              1.3909617      7.969551     
    118000   1.0606462      0.35988222     0              1.4178768      9.134257     
    118500   1.1167283      0.29549836     0              1.4094348      8.0022416    
    119000   1.0530928      0.28478617     0              1.3352463      8.1537359    
    119500   1.0439664      0.25525174     0              1.2966083      7.4500271    
    120000   1.0103346      0.24499426     0              1.252803       7.1322536    
    120500   0.96345338     0.26957492     0              1.2306197      7.4610353    
    121000   1.037909       0.24558298     0              1.2808972      7.3024779    
    121500   0.96947154     0.26580561     0              1.2328535      7.4534387    
    122000   0.93388895     0.29381573     0              1.22537        8.122606     
    122500   0.88994969     0.27093919     0              1.158664       7.5454268    
    123000   0.89522087     0.30326759     0              1.1962504      8.1778042    
    123500   0.92310383     0.25854554     0              1.1793416      7.3882392    
    124000   0.88314783     0.22011654     0              1.1010565      6.5444284    
    124500   0.84340675     0.25761544     0              1.0989137      7.4622766    
    125000   0.76922172     0.25903566     0              1.0263343      7.2445165    
    125500   0.75936677     0.19977434     0              0.95724269     6.1214297    
    126000   0.8192173      0.1686377      0              0.98580696     5.6209857    
    126500   0.73510874     0.21478882     0              0.94805978     6.2782528    
    127000   0.74928312     0.21571195     0              0.96312186     6.385497     
    127500   0.72632607     0.20825524     0              0.93276549     6.2390442    
    128000   0.71265763     0.2120524      0              0.92292839     6.3138992    
    128500   0.69912331     0.1721844      0              0.8695599      5.4315623    
    129000   0.66559987     0.15301651     0              0.81695238     5.0635325    
    129500   0.67702511     0.14309123     0              0.81842377     5.0718689    
    130000   0.71595989     0.16285948     0              0.87702948     5.3892942    
    130500   0.69288998     0.18181207     0              0.87296982     5.803219     
    131000   0.71895877     0.17892318     0              0.89608456     5.5622954    
    131500   0.66836625     0.14805563     0              0.81475096     4.891406     
    132000   0.65084673     0.16075606     0              0.80997567     5.3184355    
    132500   0.64130819     0.15667827     0              0.79638319     5.1399742    
    133000   0.57532349     0.16231456     0              0.73619974     5.2656466    
    133500   0.62776176     0.13035704     0              0.7565494      4.7607467    
    134000   0.60385284     0.10693733     0              0.70928054     4.1950699    
    134500   0.59048578     0.12066438     0              0.70967394     4.2858365    
    135000   0.51984769     0.1205896      0              0.63913767     4.170062     
    135500   0.51809115     0.10476209     0              0.62155801     4.0129007    
    136000   0.54232339     0.12579246     0              0.66676004     4.1764331    
    136500   0.51944031     0.12284622     0              0.64098792     4.2835222    
    137000   0.49578825     0.095523238    0              0.59007201     3.7769585    
    137500   0.45279248     0.10939294     0              0.56105344     3.9349971    
    138000   0.43885895     0.12406455     0              0.56182635     4.1625306    
    138500   0.45280553     0.098264315    0              0.54993783     3.7542837    
    139000   0.40161383     0.089702045    0              0.49031184     3.4869239    
    139500   0.40106614     0.085834803    0              0.48589828     3.3601861    
    140000   0.40573978     0.083014883    0              0.48774032     3.2779963    
    140500   0.39197566     0.081873782    0              0.4728695      3.3874759    
    141000   0.37486195     0.064119071    0              0.43804386     2.9448582    
    141500   0.36072155     0.059245428    0              0.41906518     2.5654499    
    142000   0.36569935     0.06176519     0              0.42655029     2.9892329    
    142500   0.32408915     0.056227409    0              0.37950634     2.7417588    
    143000   0.31591683     0.05202944     0              0.36715648     2.5664415    
    143500   0.30401414     0.049833429    0              0.35308753     2.3392172    
    144000   0.27748723     0.059511648    0              0.33630516     2.6717739    
    144500   0.28260045     0.04700475     0              0.3288987      2.3336389    
    145000   0.23783413     0.059025809    0              0.29626536     2.4963462    
    145500   0.21817619     0.030133582    0              0.24776433     1.7539486    
    146000   0.20816116     0.039505183    0              0.24714594     1.9109344    
    146500   0.1966099      0.028675825    0              0.2247942      1.6260831    
    147000   0.18402371     0.027274656    0              0.21083831     1.6708945    
    147500   0.17358427     0.024227328    0              0.19737763     1.407721     
    148000   0.17247168     0.021141726    0              0.19318223     1.4164615    
    148500   0.14517911     0.020338875    0              0.16515503     1.3418691    
    149000   0.12506836     0.024738274    0              0.14949396     1.4056906    
    149500   0.10173391     0.015397163    0              0.11687674     1.0103793    
    150000   0.095724274    0.013871571    0              0.10935653     0.9706639    
Loop time of 1.24017 on 10 procs for 100000 steps with 400 atoms

Performance: 69667675.409 tau/day, 80633.884 timesteps/s, 32.254 Matom-step/s
99.3% CPU use with 10 MPI tasks x 1 OpenMP threads

MPI task timing breakdown:
Section |  min time  |  avg time  |  max time  |%varavg| %total
---------------------------------------------------------------
Pair    | 0.099383   | 0.10093    | 0.10322    |   0.4 |  8.14
Neigh   | 0.12971    | 0.1313     | 0.13284    |   0.2 | 10.59
Comm    | 0.56348    | 0.57637    | 0.58361    |   1.0 | 46.48
Output  | 0.015116   | 0.015216   | 0.015845   |   0.2 |  1.23
Modify  | 0.21625    | 0.22667    | 0.23948    |   1.6 | 18.28
Other   |            | 0.1897     |            |       | 15.30

Nlocal:             40 ave          42 max          38 min
Histogram: 1 0 2 0 0 4 0 2 0 1
Nghost:           41.3 ave          45 max          38 min
Histogram: 1 1 1 0 2 3 0 1 0 1
Neighs:            100 ave         112 max          88 min
Histogram: 1 1 0 1 0 4 2 0 0 1

Total # of neighbors = 1000
Ave neighs/atom = 2.5
Neighbor list builds = 24245
Dangerous builds = 0
Total wall time: 0:00:01
