LAMMPS (15 Sep 2022)
OMP_NUM_THREADS environment is not set. Defaulting to 1 thread. (src/comm.cpp:98)
  using 1 OpenMP thread(s) per MPI task
Lattice spacing in x,y,z = 1.1952286 1.1952286 1.1952286
Created orthogonal box = (0 0 -0.5976143) to (23.904572 23.904572 0.5976143)
  5 by 2 by 1 MPI processor grid
Created 400 atoms
  using lattice units in orthogonal box = (0 0 -0.5976143) to (23.904572 23.904572 0.5976143)
  create_atoms CPU = 0.000 seconds
Generated 0 of 0 mixed pair_coeff terms from geometric mixing rule
Neighbor list info ...
  update: every = 1 steps, delay = 0 steps, check = yes
  max neighbors/atom: 2000, page size: 100000
  master list distance cutoff = 1.3
  ghost atom cutoff = 1.3
  binsize = 0.65, bins = 37 37 2
  1 neighbor lists, perpetual/occasional/extra = 1 0 0
  (1) pair lj/cut, perpetual
      attributes: half, newton on
      pair build: half/bin/atomonly/newton
      stencil: half/bin/2d
      bin: standard
Setting up Verlet run ...
  Unit style    : lj
  Current step  : 0
  Time step     : 0.01
Per MPI rank memory allocation (min/avg/max) = 3.048 | 3.048 | 3.048 Mbytes
   Step          Temp          E_pair         E_mol          TotEng         Press     
         0   3              0              0              2.9925         2.09475      
       500   2.8793627      0.34765324     0              3.2198175      6.7344697    
      1000   3.0208014      0.36869026     0              3.3819397      7.3379308    
      1500   2.7270385      0.52440855     0              3.2446294      8.7541661    
      2000   3.0393273      0.3874382      0              3.4191672      7.4632425    
      2500   2.8932976      0.39601172     0              3.2820761      7.6061906    
      3000   2.7667564      0.40191813     0              3.1617577      7.6318972    
      3500   2.7874105      0.47866854     0              3.2591106      8.2847697    
      4000   3.0708776      0.42479319     0              3.4879936      7.7549848    
      4500   3.2111022      0.38860485     0              3.5916793      7.4142645    
      5000   3.0498223      0.40085592     0              3.4430537      7.6849261    
      5500   3.222386       0.3202291      0              3.5345591      6.8804481    
      6000   3.1031759      0.43963928     0              3.5350573      7.8437229    
      6500   3.0276133      0.47122675     0              3.491271       8.3282276    
      7000   3.1213347      0.44505542     0              3.5585868      8.322836     
      7500   3.0747623      0.41076384     0              3.4778392      7.5333677    
      8000   3.084752       0.46524562     0              3.5422857      8.3687722    
      8500   3.018775       0.52531116     0              3.5365392      9.2280065    
      9000   3.2916965      0.56203189     0              3.8454992      9.4306887    
      9500   3.0439461      0.60097031     0              3.6373066      9.5582412    
     10000   3.310096       0.31860177     0              3.6204225      7.0296814    
     10500   3.1621523      0.48135832     0              3.6356052      8.6654378    
     11000   3.3794031      0.5421264      0              3.913081       9.4563129    
     11500   3.0388074      0.48730112     0              3.5185115      8.4513019    
     12000   3.1231077      0.35348919     0              3.4687891      7.1617146    
     12500   3.0030613      0.38805323     0              3.3836069      7.185222     
     13000   2.7883788      0.41585312     0              3.197261       7.8828301    
     13500   2.9944022      0.35572159     0              3.3426377      7.1108992    
     14000   2.9750328      0.32530565     0              3.2929008      6.8997943    
     14500   2.9543573      0.37946206     0              3.3264335      7.5400042    
     15000   2.6975424      0.49486113     0              3.1856597      8.4712375    
     15500   3.0326922      0.46875985     0              3.4938703      8.7117173    
     16000   3.0678975      0.56657493     0              3.6268027      9.5670726    
     16500   3.1038337      0.35446423     0              3.4505384      7.1390753    
     17000   2.9852665      0.4360693      0              3.4138726      7.9797126    
     17500   3.0724056      0.38323251     0              3.4479571      7.500798     
     18000   2.9309557      0.50156272     0              3.425191       8.6797024    
     18500   2.9389481      0.45105068     0              3.3826514      8.3577999    
     19000   2.8359015      0.41935584     0              3.2481675      7.4610049    
     19500   2.9375246      0.38903647     0              3.3192172      7.4693875    
     20000   3.0128046      0.32116336     0              3.326436       6.7708218    
     20500   2.8284985      0.394311       0              3.2157383      7.2904088    
     21000   2.9374746      0.38933145     0              3.3194624      7.4451345    
     21500   3.0777735      0.3877412      0              3.4578203      7.4164694    
     22000   3.0191863      0.51566528     0              3.5273036      8.7940939    
     22500   3.0525488      0.39630272     0              3.4412202      7.605631     
     23000   3.1004466      0.51769462     0              3.6103901      8.8988456    
     23500   3.0300499      0.42431965     0              3.4467944      7.9563258    
     24000   3.0947202      0.39282034     0              3.4798037      7.7370397    
     24500   3.1048368      0.49639879     0              3.5934735      8.5180825    
     25000   3.4543416      0.46732555     0              3.9130312      8.6706739    
     25500   3.1672931      0.55042038     0              3.7097952      8.9570045    
     26000   3.1099524      0.4044658      0              3.5066433      7.8237541    
     26500   2.849527       0.60643779     0              3.448841       9.4652403    
     27000   2.9294447      0.49101749     0              3.4131386      8.2346737    
     27500   3.0163731      0.47355887     0              3.482391       8.1795496    
     28000   3.2257477      0.31294487     0              3.5306282      6.979491     
     28500   3.0989031      0.43370281     0              3.5248586      7.9321287    
     29000   3.0639372      0.46334123     0              3.5196186      8.1181304    
     29500   2.9073124      0.31876505     0              3.2188092      6.5409425    
     30000   2.8157108      0.54591015     0              3.3545816      8.6631881    
     30500   2.8712054      0.45349903     0              3.3175265      7.9416609    
     31000   2.960185       0.4594826      0              3.4122672      8.2929347    
     31500   2.8827407      0.5391644      0              3.4146982      8.7109874    
     32000   2.795477       0.39426376     0              3.1827521      7.4027649    
     32500   3.0368669      0.30435127     0              3.333626       6.854727     
     33000   2.9117122      0.45506842     0              3.3595014      8.3339416    
     33500   2.9524611      0.45180839     0              3.3968884      8.1528757    
     34000   2.8194755      0.46831032     0              3.2807371      8.2733242    
     34500   2.824235       0.39517496     0              3.2123494      7.4120249    
     35000   2.7205596      0.43031854     0              3.1440767      7.6510765    
     35500   2.9714445      0.35883537     0              3.3228512      7.2425271    
     36000   2.9858377      0.40153986     0              3.379913       7.5385558    
     36500   2.9568364      0.40297192     0              3.3524162      7.7752935    
     37000   2.9000414      0.46884745     0              3.3616388      8.1478876    
     37500   2.9340386      0.47410532     0              3.4008088      8.3978667    
     38000   3.159066       0.33890757     0              3.4900759      7.090616     
     38500   3.0328565      0.4997084      0              3.5249827      8.7446392    
     39000   2.9211247      0.62283198     0              3.5366539      9.8249436    
     39500   3.1445063      0.45551119     0              3.5921562      8.4426139    
     40000   3.3587234      0.47765908     0              3.8279856      8.780239     
     40500   3.2493628      0.5031474      0              3.7443868      8.7574427    
     41000   2.9569575      0.43827558     0              3.3878407      8.1553161    
     41500   2.982625       0.47941677     0              3.4545852      8.3697956    
     42000   3.0819983      0.38122711     0              3.4555204      7.5424779    
     42500   3.1261309      0.34517132     0              3.4634869      7.3039715    
     43000   3.1775955      0.44890146     0              3.618553       8.4999571    
     43500   3.097429       0.41785137     0              3.5075368      7.8947329    
     44000   2.9956507      0.46824436     0              3.4564059      8.0046088    
     44500   3.115946       0.4099414      0              3.5180976      7.5342648    
     45000   2.9444599      0.51909262     0              3.4561913      8.7330966    
     45500   2.8228875      0.37812319     0              3.1939535      7.288177     
     46000   2.7891754      0.38027917     0              3.1624817      7.3362334    
     46500   3.0227884      0.43068651     0              3.445918       7.9691335    
     47000   2.9083026      0.4694272      0              3.370459       8.4888837    
     47500   2.8251162      0.46058482     0              3.2786383      8.1489533    
     48000   2.976768       0.37813447     0              3.3474605      7.4072816    
     48500   2.8330294      0.43101221     0              3.2569591      8.0448858    
     49000   2.7437524      0.48180025     0              3.2186932      8.2385853    
     49500   2.7532656      0.54284069     0              3.2892231      8.6836952    
     50000   3.0435113      0.3300174      0              3.3659199      6.7842372    
Loop time of 0.654423 on 10 procs for 50000 steps with 400 atoms

Performance: 66012306.153 tau/day, 76403.132 timesteps/s, 30.561 Matom-step/s
99.1% CPU use with 10 MPI tasks x 1 OpenMP threads

MPI task timing breakdown:
Section |  min time  |  avg time  |  max time  |%varavg| %total
---------------------------------------------------------------
Pair    | 0.038105   | 0.039647   | 0.044492   |   0.9 |  6.06
Neigh   | 0.082796   | 0.083535   | 0.086326   |   0.3 | 12.76
Comm    | 0.30007    | 0.30749    | 0.31339    |   0.7 | 46.99
Output  | 0.0010549  | 0.0014435  | 0.0048375  |   3.0 |  0.22
Modify  | 0.1116     | 0.11752    | 0.12628    |   1.4 | 17.96
Other   |            | 0.1048     |            |       | 16.01

Nlocal:             40 ave          44 max          37 min
Histogram: 1 0 4 0 3 0 0 0 1 1
Nghost:           35.6 ave          38 max          33 min
Histogram: 1 0 2 0 2 0 2 0 1 2
Neighs:             65 ave          75 max          57 min
Histogram: 2 0 1 3 0 1 0 1 1 1

Total # of neighbors = 650
Ave neighs/atom = 1.625
Neighbor list builds = 16924
Dangerous builds = 0
Generated 0 of 0 mixed pair_coeff terms from geometric mixing rule
Setting up Verlet run ...
  Unit style    : lj
  Current step  : 50000
  Time step     : 0.01
Per MPI rank memory allocation (min/avg/max) = 3.071 | 3.071 | 3.071 Mbytes
   Step          Temp          E_pair         E_mol          TotEng         Press     
     50000   3.0435113      0.3300174      0              3.3659199      6.7842372    
     50500   2.9309179      0.38085572     0              3.3044464      7.2284193    
     51000   2.9303012      0.41746837     0              3.3404438      7.8873861    
     51500   2.6188546      0.39009419     0              3.0024017      6.9592047    
     52000   2.7243372      0.44367988     0              3.1612062      7.8935253    
     52500   2.796705       0.51614964     0              3.3058629      8.5392861    
     53000   2.6678427      0.50884542     0              3.1700185      8.6489949    
     53500   2.7755355      0.41638805     0              3.1849847      7.391173     
     54000   2.4608744      0.39628847     0              2.8510107      7.131547     
     54500   2.5729236      0.55280808     0              3.1192993      9.0016186    
     55000   2.755366       0.44030468     0              3.1887822      7.9760272    
     55500   2.7514551      0.41522428     0              3.1598008      7.6244459    
     56000   2.6373127      0.53402461     0              3.164744       8.7363753    
     56500   2.8125901      0.48499027     0              3.2905489      8.1864965    
     57000   2.8436678      0.36161753     0              3.1981761      7.1031525    
     57500   2.7952588      0.45645391     0              3.2447246      7.8641794    
     58000   2.7598239      0.40327141     0              3.1561957      7.3676501    
     58500   2.8292545      0.42112109     0              3.2433025      7.827281     
     59000   3.0005299      0.42953838     0              3.422567       8.0236526    
     59500   2.7764472      0.4680378      0              3.2375439      8.3230735    
     60000   2.8780118      0.36222429     0              3.233041       7.0577045    
     60500   2.8253079      0.36390834     0              3.182153       7.1916733    
     61000   2.8364273      0.3830114      0              3.2123476      7.4148951    
     61500   2.835957       0.41516796     0              3.2440351      7.6416797    
     62000   2.8361544      0.46381634     0              3.2928803      8.007961     
     62500   2.6202085      0.48766219     0              3.1013202      8.2040349    
     63000   2.5779389      0.44038537     0              3.0118794      7.6563169    
     63500   2.6056226      0.29198903     0              2.8910976      6.0732155    
     64000   2.476045       0.39828305     0              2.8681379      7.3550959    
     64500   2.3771716      0.35376064     0              2.7249893      6.5873923    
     65000   2.357643       0.3580542      0              2.7098031      6.6815236    
     65500   2.4349298      0.35142304     0              2.7802655      6.6396505    
     66000   2.3802052      0.44435298     0              2.8186077      7.3822274    
     66500   2.503054       0.33780863     0              2.834605       6.9365481    
     67000   2.4946602      0.36876624     0              2.8571898      6.7117411    
     67500   2.3751883      0.45111995     0              2.8203703      7.3521337    
     68000   2.7430767      0.3275519      0              3.0637709      6.7240236    
     68500   2.4976533      0.33772208     0              2.8291313      6.7377124    
     69000   2.5703252      0.34326753     0              2.9071669      6.5773836    
     69500   2.4197106      0.41164442     0              2.8253058      7.2242503    
     70000   2.5033213      0.40752806     0              2.9045911      7.4522336    
     70500   2.3573477      0.38155402     0              2.7330084      7.1207329    
     71000   2.4100206      0.30450036     0              2.7084959      6.2932664    
     71500   2.3856874      0.32761662     0              2.7073398      6.3504744    
     72000   2.350631       0.39084369     0              2.7355981      7.2736326    
     72500   2.509804       0.27746201     0              2.7809915      5.8307683    
     73000   2.5001813      0.36466938     0              2.8586003      6.7740427    
     73500   2.701937       0.38189553     0              3.0770777      7.1446149    
     74000   2.3977783      0.38177295     0              2.7735568      7.1653631    
     74500   2.3896452      0.26427658     0              2.6479477      5.8875856    
     75000   2.2859246      0.35071038     0              2.6309202      6.589771     
     75500   2.5590675      0.28720643     0              2.8398763      5.9805544    
     76000   2.503433       0.38787293     0              2.8850474      7.1549437    
     76500   2.322435       0.31928483     0              2.6359137      6.4768475    
     77000   2.2186282      0.32092398     0              2.5340056      6.3994281    
     77500   2.3546077      0.27447574     0              2.6231969      5.8419744    
     78000   2.2428845      0.29873681     0              2.5360141      5.9296126    
     78500   2.2008565      0.40887791     0              2.6042322      7.0879858    
     79000   2.3612441      0.33557118     0              2.6909122      6.5447994    
     79500   2.3573647      0.31663053     0              2.6681019      6.2356052    
     80000   2.1587208      0.26297582     0              2.4162999      5.6660089    
     80500   2.1077458      0.32014375     0              2.4226202      5.9242512    
     81000   2.128056       0.27166699     0              2.3944028      5.5246198    
     81500   2.1952528      0.45008862     0              2.6398533      7.660725     
     82000   2.1589601      0.39639755     0              2.5499602      6.8580315    
     82500   2.1171798      0.26813949     0              2.3800263      5.5008587    
     83000   1.9994118      0.25833603     0              2.2527493      5.3438491    
     83500   1.8783122      0.26515091     0              2.1387673      5.5290765    
     84000   1.8804325      0.22417819     0              2.0999096      4.8493013    
     84500   1.8898697      0.2449596      0              2.1301046      5.1774443    
     85000   1.9646986      0.23748049     0              2.1972674      5.1932263    
     85500   1.9128502      0.27806673     0              2.1861348      5.4617738    
     86000   1.8412071      0.23516503     0              2.0717691      5.0581276    
     86500   1.924671       0.26028825     0              2.1801476      5.4362173    
     87000   1.8182997      0.25182094     0              2.0655749      5.1657787    
     87500   1.8901689      0.28221075     0              2.1676543      5.6817531    
     88000   1.944361       0.26797691     0              2.207477       5.4861624    
     88500   1.820855       0.36934386     0              2.1856467      6.2629758    
     89000   1.9269675      0.25415283     0              2.1763029      5.1719678    
     89500   1.9338109      0.33983046     0              2.2688068      6.2368204    
     90000   1.8603193      0.24150384     0              2.0971724      5.1809157    
     90500   1.8068311      0.23269936     0              2.0350134      5.1705461    
     91000   1.7074434      0.28513642     0              1.9883112      5.3951573    
     91500   1.7319615      0.17984273     0              1.9074743      4.4350503    
     92000   1.6794652      0.18433004     0              1.8595966      4.2145751    
     92500   1.6470431      0.17211334     0              1.8150389      4.1813955    
     93000   1.7559489      0.18606183     0              1.9376209      4.6213059    
     93500   1.6413565      0.28105015     0              1.9183032      5.404048     
     94000   1.727994       0.19366645     0              1.9173405      4.5018397    
     94500   1.7277017      0.22293422     0              1.9463166      4.8890202    
     95000   1.5958771      0.24880521     0              1.8406926      5.0547261    
     95500   1.7348706      0.294233       0              2.0247665      5.4672357    
     96000   1.7117739      0.18934998     0              1.8968445      4.388406     
     96500   1.7093427      0.18940744     0              1.8944768      4.3486201    
     97000   1.6513027      0.19857985     0              1.8457542      4.4661641    
     97500   1.708139       0.21576376     0              1.9196324      4.6120856    
     98000   1.6302542      0.19217203     0              1.8183506      4.4471245    
     98500   1.5994654      0.14752845     0              1.7429952      3.7416227    
     99000   1.4693299      0.21049232     0              1.6761489      4.538168     
     99500   1.4609865      0.13839897     0              1.595733       3.6857272    
    100000   1.4555035      0.1893461      0              1.6412109      3.9543003    
    100500   1.4558813      0.19563786     0              1.6478795      4.1967439    
    101000   1.424935       0.24018129     0              1.6615539      4.7834051    
    101500   1.4537649      0.13959441     0              1.5897249      3.6235785    
    102000   1.4604469      0.20080825     0              1.6576041      4.3160666    
    102500   1.5017674      0.18367394     0              1.6816869      4.0082576    
    103000   1.5109021      0.20774136     0              1.7148662      4.5312068    
    103500   1.4970723      0.18236313     0              1.6756928      4.1461954    
    104000   1.5695806      0.18659768     0              1.7522544      4.1384184    
    104500   1.4141013      0.22286087     0              1.633427       4.6475761    
    105000   1.4631606      0.15638839     0              1.6158911      3.657956     
    105500   1.4213312      0.18928782     0              1.6070657      4.3358808    
    106000   1.4326507      0.20246166     0              1.6315307      4.3543413    
    106500   1.4649255      0.18425163     0              1.6455148      4.1081649    
    107000   1.3507993      0.19548253     0              1.5429048      4.3756935    
    107500   1.3415422      0.15141602     0              1.4896044      3.5707448    
    108000   1.2752977      0.16118106     0              1.4332905      3.8108772    
    108500   1.2325146      0.13425161     0              1.363685       3.4201232    
    109000   1.2921571      0.14596814     0              1.4348948      3.6169747    
    109500   1.3022274      0.16605863     0              1.4650305      3.7747341    
    110000   1.2421469      0.17553499     0              1.4145765      3.9537104    
    110500   1.2183554      0.13317369     0              1.3484832      3.2561172    
    111000   1.2440708      0.13868528     0              1.3796459      3.498342     
    111500   1.2294381      0.18873062     0              1.4150951      4.0610202    
    112000   1.3035906      0.17220734     0              1.472539       3.9859228    
    112500   1.2725218      0.18977998     0              1.4591205      4.1600933    
    113000   1.2523843      0.11993121     0              1.3691846      3.2265106    
    113500   1.1760485      0.15211752     0              1.3252259      3.6213481    
    114000   1.1695427      0.12432704     0              1.2909459      3.211727     
    114500   1.1732061      0.11737401     0              1.2876471      3.1825298    
    115000   0.99917494     0.13026682     0              1.1269438      3.1388565    
    115500   1.0650477      0.11976661     0              1.1821517      3.0988489    
    116000   1.0393757      0.13044848     0              1.1672257      3.2117804    
    116500   1.0766492      0.12178612     0              1.1957437      3.2769303    
    117000   1.0234532      0.12970307     0              1.1505977      3.0866211    
    117500   0.93167499     0.11870141     0              1.0480472      3.0128048    
    118000   0.93961506     0.10717206     0              1.0444381      2.8267425    
    118500   0.93075112     0.1552644      0              1.0836886      3.3474394    
    119000   0.99671157     0.12158861     0              1.1158084      3.146593     
    119500   1.0458192      0.11508112     0              1.1582857      3.0713484    
    120000   1.0712999      0.1060058      0              1.1746274      2.932552     
    120500   0.97689059     0.11162379     0              1.0860722      2.9465305    
    121000   0.99211061     0.096184766    0              1.0858151      2.7199908    
    121500   0.96845126     0.091010051    0              1.0570402      2.5937925    
    122000   0.9774876      0.089908842    0              1.0649527      2.6255427    
    122500   0.95904309     0.12184106     0              1.0784865      3.0731788    
    123000   0.89487803     0.085014555    0              0.97765539     2.5075998    
    123500   0.87974257     0.087288726    0              0.96483194     2.5771977    
    124000   0.8624595      0.083780991    0              0.94408434     2.3864318    
    124500   0.81215902     0.080100693    0              0.89022932     2.3291999    
    125000   0.82502508     0.087439364    0              0.91040188     2.4134129    
    125500   0.75391103     0.11076916     0              0.86279542     2.7388327    
    126000   0.73754837     0.070858698    0              0.8065632      2.1992612    
    126500   0.76526692     0.059992487    0              0.82334624     1.9488843    
    127000   0.77273026     0.10091326     0              0.87171169     2.5336903    
    127500   0.78067783     0.087749498    0              0.86647563     2.3879105    
    128000   0.74040118     0.10020898     0              0.83875915     2.5077053    
    128500   0.74942984     0.082083988    0              0.82964025     2.2145755    
    129000   0.77728064     0.073751303    0              0.84908874     2.2350324    
    129500   0.68203478     0.063747238    0              0.74407693     1.9313461    
    130000   0.68174407     0.057817605    0              0.73785731     1.8940151    
    130500   0.64084878     0.066800092    0              0.70604675     2.0166003    
    131000   0.64397547     0.057406175    0              0.69977171     1.7333964    
    131500   0.63705072     0.057701629    0              0.69315972     1.8269723    
    132000   0.64544441     0.05345        0              0.6972808      1.8428935    
    132500   0.64618971     0.072987109    0              0.71756134     2.1589907    
    133000   0.61508669     0.050982668    0              0.66453165     1.7401119    
    133500   0.62553555     0.052862514    0              0.67683423     1.7727911    
    134000   0.63354254     0.070260822    0              0.7022195      2.1000196    
    134500   0.56892725     0.054960993    0              0.62246592     1.7084659    
    135000   0.56333262     0.051109515    0              0.61303381     1.7495159    
    135500   0.50735242     0.068153439    0              0.57423748     1.9157424    
    136000   0.53634867     0.054528843    0              0.58953664     1.7486654    
    136500   0.4776682      0.046959296    0              0.52343333     1.6366787    
    137000   0.46946257     0.047053913    0              0.51534283     1.6054642    
    137500   0.45382091     0.035002376    0              0.48768873     1.3076867    
    138000   0.42996687     0.040255237    0              0.46914719     1.3114188    
    138500   0.42817859     0.033694138    0              0.46080228     1.2191786    
    139000   0.42036042     0.033260192    0              0.45256971     1.214577     
    139500   0.40388082     0.036205061    0              0.43907618     1.3099742    
    140000   0.38958255     0.039930447    0              0.42853904     1.389977     
    140500   0.39948758     0.029319609    0              0.42780847     1.0829842    
    141000   0.39484559     0.03087061     0              0.42472909     1.2020832    
    141500   0.36768409     0.027216267    0              0.39398115     1.1314166    
    142000   0.31978286     0.015553356    0              0.33453676     0.81293149   
    142500   0.29947093     0.021193603    0              0.31991586     0.82066587   
    143000   0.27469958     0.023689621    0              0.29770245     1.0356395    
    143500   0.27932496     0.025023351    0              0.30365        0.95078468   
    144000   0.27280813     0.021181381    0              0.29330749     0.95016458   
    144500   0.27931693     0.01604768     0              0.29466632     0.82963343   
    145000   0.2496266      0.020453486    0              0.26945602     0.84947873   
    145500   0.24322316     0.014391471    0              0.25700657     0.73344246   
    146000   0.22156358     0.016153697    0              0.23716336     0.71458923   
    146500   0.20095691     0.012619061    0              0.21307358     0.62510384   
    147000   0.18989542     0.015825116    0              0.2052458      0.71138339   
    147500   0.17896564     0.012772377    0              0.19129061     0.6896493    
    148000   0.18641595     0.0090275833   0              0.19497749     0.55367786   
    148500   0.15019726     0.0074526958   0              0.15727447     0.44190776   
    149000   0.13546706     0.0071147889   0              0.14224318     0.43792609   
    149500   0.10967735     0.006513671    0              0.11591682     0.36282142   
    150000   0.10404117     0.0020054243   0              0.10578649     0.21925225   
Loop time of 1.20172 on 10 procs for 100000 steps with 400 atoms

Performance: 71896900.294 tau/day, 83214.005 timesteps/s, 33.286 Matom-step/s
99.1% CPU use with 10 MPI tasks x 1 OpenMP threads

MPI task timing breakdown:
Section |  min time  |  avg time  |  max time  |%varavg| %total
---------------------------------------------------------------
Pair    | 0.068425   | 0.070394   | 0.078808   |   1.1 |  5.86
Neigh   | 0.11893    | 0.12053    | 0.12387    |   0.4 | 10.03
Comm    | 0.5554     | 0.56931    | 0.58101    |   1.0 | 47.37
Output  | 0.014501   | 0.014581   | 0.015098   |   0.1 |  1.21
Modify  | 0.22339    | 0.23343    | 0.2458     |   1.4 | 19.42
Other   |            | 0.1935     |            |       | 16.10

Nlocal:             40 ave          42 max          38 min
Histogram: 2 0 2 0 0 1 0 4 0 1
Nghost:           34.9 ave          39 max          32 min
Histogram: 2 3 0 0 1 1 0 0 2 1
Neighs:             67 ave          79 max          54 min
Histogram: 1 0 1 2 1 1 0 1 2 1

Total # of neighbors = 670
Ave neighs/atom = 1.675
Neighbor list builds = 24574
Dangerous builds = 0
Total wall time: 0:00:01
