LAMMPS (15 Sep 2022)
OMP_NUM_THREADS environment is not set. Defaulting to 1 thread. (src/comm.cpp:98)
  using 1 OpenMP thread(s) per MPI task
Lattice spacing in x,y,z = 1.4142136 1.4142136 1.4142136
Created orthogonal box = (0 0 -0.70710678) to (28.284271 28.284271 0.70710678)
  5 by 2 by 1 MPI processor grid
Created 400 atoms
  using lattice units in orthogonal box = (0 0 -0.70710678) to (28.284271 28.284271 0.70710678)
  create_atoms CPU = 0.000 seconds
Generated 0 of 0 mixed pair_coeff terms from geometric mixing rule
Neighbor list info ...
  update: every = 1 steps, delay = 0 steps, check = yes
  max neighbors/atom: 2000, page size: 100000
  master list distance cutoff = 1.3
  ghost atom cutoff = 1.3
  binsize = 0.65, bins = 44 44 3
  1 neighbor lists, perpetual/occasional/extra = 1 0 0
  (1) pair lj/cut, perpetual
      attributes: half, newton on
      pair build: half/bin/atomonly/newton
      stencil: half/bin/2d
      bin: standard
Setting up Verlet run ...
  Unit style    : lj
  Current step  : 0
  Time step     : 0.01
Per MPI rank memory allocation (min/avg/max) = 3.048 | 3.048 | 3.048 Mbytes
   Step          Temp          E_pair         E_mol          TotEng         Press     
         0   3              0              0              2.9925         1.49625      
       500   2.9251769      0.20291893     0              3.1207829      3.4966914    
      1000   2.9968562      0.130443       0              3.1198071      2.9204811    
      1500   2.9385468      0.28267471     0              3.2138752      3.9528531    
      2000   3.3203426      0.19656456     0              3.5086063      3.6427466    
      2500   3.0545777      0.27999571     0              3.3269369      4.1984537    
      3000   3.0017621      0.16374451     0              3.1580022      3.2888755    
      3500   2.8744988      0.22121386     0              3.0885264      3.4534254    
      4000   3.0202964      0.14204969     0              3.1547954      3.0431011    
      4500   2.8899908      0.31322055     0              3.1959863      4.2500053    
      5000   2.9792909      0.26979782     0              3.2416405      4.1492781    
      5500   2.9074277      0.21065474     0              3.1108139      3.5147643    
      6000   3.0624926      0.20173891     0              3.2565753      3.416326     
      6500   3.0391499      0.22804281     0              3.2595948      3.7781182    
      7000   3.0586493      0.24952948     0              3.3005321      3.8432722    
      7500   2.9910396      0.18897691     0              3.1725389      3.4014583    
      8000   2.8952895      0.13268444     0              3.0207357      2.9171125    
      8500   2.9629305      0.19462464     0              3.1501478      3.5139523    
      9000   2.6916508      0.28696443     0              2.9718861      3.8225405    
      9500   2.8956166      0.2691547      0              3.1575322      3.8693609    
     10000   3.0244663      0.25500965     0              3.2719148      3.8667603    
     10500   3.21441        0.28176853     0              3.4881425      4.2095704    
     11000   3.3399208      0.22940052     0              3.5609715      3.88497      
     11500   3.2033545      0.18976732     0              3.3851134      3.5483744    
     12000   3.0576136      0.20305155     0              3.2530211      3.5299994    
     12500   2.9587622      0.23957177     0              3.1909371      3.7078449    
     13000   3.00056        0.15308382     0              3.1461424      3.139989     
     13500   2.9458561      0.22110057     0              3.159592       3.6247674    
     14000   3.0336266      0.19569368     0              3.2217362      3.4981743    
     14500   2.762941       0.16250151     0              2.9185352      3.0188442    
     15000   3.0319564      0.20173692     0              3.2261134      3.4662581    
     15500   3.0492045      0.27900701     0              3.3205884      4.1226224    
     16000   2.987666       0.35643712     0              3.3366339      4.5506819    
     16500   3.0544419      0.24662966     0              3.2934355      3.7271247    
     17000   3.0693814      0.26138783     0              3.3230958      3.846667     
     17500   3.0040039      0.30450103     0              3.300995       4.1124382    
     18000   2.9057659      0.20258948     0              3.101091       3.3362466    
     18500   2.8493192      0.30456533     0              3.1467613      4.1857698    
     19000   2.9799327      0.14493369     0              3.1174165      3.0333398    
     19500   2.8490304      0.15174113     0              2.993649       2.9946805    
     20000   2.9236591      0.24746031     0              3.1638103      3.608513     
     20500   2.9507039      0.16592549     0              3.1092527      3.2522179    
     21000   2.9379018      0.21130702     0              3.1418641      3.4442419    
     21500   2.9192198      0.29910582     0              3.2110275      4.229539     
     22000   2.9654352      0.19616482     0              3.1541865      3.4539494    
     22500   2.9898114      0.27223998     0              3.2545769      4.0912394    
     23000   3.0183125      0.20114049     0              3.2119072      3.4105564    
     23500   3.0688836      0.23788164     0              3.299093       3.909592     
     24000   3.0731029      0.18688107     0              3.2523013      3.4129153    
     24500   3.176665       0.19412014     0              3.3628435      3.4758802    
     25000   3.0816386      0.25376094     0              3.3276954      3.8575712    
     25500   2.8558614      0.24214135     0              3.0908631      3.7540099    
     26000   2.8503298      0.23205203     0              3.075256       3.4779392    
     26500   2.9097628      0.20428265     0              3.1067711      3.53957      
     27000   3.0777226      0.22234504     0              3.2923733      3.728104     
     27500   3.2334835      0.22888137     0              3.4542811      3.7490688    
     28000   3.2572105      0.22699554     0              3.4760631      3.9607377    
     28500   2.9402695      0.21020682     0              3.1431257      3.4476876    
     29000   2.8611413      0.22822026     0              3.0822087      3.5475775    
     29500   2.9089785      0.16168469     0              3.0633907      3.0967101    
     30000   2.9736828      0.18482399     0              3.1510726      3.3920575    
     30500   3.1030723      0.2125515      0              3.3078661      3.672912     
     31000   3.1447061      0.17484629     0              3.3116906      3.5017964    
     31500   3.0094078      0.19422749     0              3.1961118      3.5517347    
     32000   3.2995458      0.21387327     0              3.5051702      3.8414579    
     32500   3.3765634      0.1982865      0              3.5664085      3.5863864    
     33000   3.0129315      0.32469766     0              3.3300968      4.4610278    
     33500   3.0081387      0.23698788     0              3.2376063      3.7702342    
     34000   3.0855426      0.097876303    0              3.1757051      2.6523625    
     34500   2.9130191      0.24840862     0              3.1541451      3.6622048    
     35000   2.8947966      0.19413189     0              3.0816915      3.296491     
     35500   2.6712399      0.30008538     0              2.9646472      4.1364011    
     36000   2.6702765      0.17480101     0              2.8384018      3.1036013    
     36500   2.8258797      0.23888431     0              3.0576993      3.6983814    
     37000   3.0435786      0.19875999     0              3.2347296      3.5190693    
     37500   2.9383903      0.24839141     0              3.1794358      3.9133239    
     38000   3.1490569      0.16096215     0              3.3021464      3.2484596    
     38500   2.9737153      0.21698772     0              3.1832687      3.5748526    
     39000   3.1897765      0.28809154     0              3.4698936      4.2569055    
     39500   3.2144077      0.24385145     0              3.4502231      3.9534685    
     40000   3.1802077      0.20874949     0              3.3810066      3.7646625    
     40500   3.048294       0.22571018     0              3.2663834      3.6916891    
     41000   3.1794393      0.24088553     0              3.4123762      3.7761688    
     41500   2.9513946      0.27880542     0              3.2228215      3.8778845    
     42000   3.2511275      0.15988713     0              3.4028868      3.1792495    
     42500   2.9950531      0.30662715     0              3.2941926      4.1786887    
     43000   3.1280634      0.17860728     0              3.2988505      3.4301546    
     43500   3.2237849      0.17493172     0              3.3906571      3.3983855    
     44000   2.786866       0.29187559     0              3.0717745      3.7520002    
     44500   2.8098181      0.33618908     0              3.1389826      4.1754265    
     45000   2.7682146      0.3365029      0              3.097797       4.2987164    
     45500   2.8983723      0.27655598     0              3.1676824      4.0565887    
     46000   2.7696382      0.19120869     0              2.9539228      3.1842435    
     46500   2.5916459      0.21006503     0              2.7952318      3.2550515    
     47000   2.8838292      0.18744175     0              3.0640614      3.5085972    
     47500   3.0316128      0.18339192     0              3.2074257      3.4126347    
     48000   3.0653236      0.283257       0              3.3409173      4.1916212    
     48500   3.1757328      0.33666005     0              3.5044535      4.5403117    
     49000   3.2586361      0.17592558     0              3.4264151      3.4043385    
     49500   3.0551271      0.24250724     0              3.2899966      3.9222942    
     50000   2.9145436      0.22145712     0              3.1287144      3.7022668    
Loop time of 0.616079 on 10 procs for 50000 steps with 400 atoms

Performance: 70120919.934 tau/day, 81158.472 timesteps/s, 32.463 Matom-step/s
99.2% CPU use with 10 MPI tasks x 1 OpenMP threads

MPI task timing breakdown:
Section |  min time  |  avg time  |  max time  |%varavg| %total
---------------------------------------------------------------
Pair    | 0.028142   | 0.028403   | 0.028729   |   0.1 |  4.61
Neigh   | 0.068481   | 0.069085   | 0.069481   |   0.1 | 11.21
Comm    | 0.29182    | 0.29792    | 0.30145    |   0.6 | 48.36
Output  | 0.0010448  | 0.0014299  | 0.0047905  |   3.0 |  0.23
Modify  | 0.11324    | 0.11741    | 0.12605    |   1.2 | 19.06
Other   |            | 0.1018     |            |       | 16.53

Nlocal:             40 ave          44 max          36 min
Histogram: 1 1 1 1 0 2 1 1 1 1
Nghost:           31.1 ave          34 max          28 min
Histogram: 1 1 0 0 0 5 1 0 1 1
Neighs:           37.8 ave          53 max          28 min
Histogram: 2 1 1 0 3 1 1 0 0 1

Total # of neighbors = 378
Ave neighs/atom = 0.945
Neighbor list builds = 16949
Dangerous builds = 0
Generated 0 of 0 mixed pair_coeff terms from geometric mixing rule
Setting up Verlet run ...
  Unit style    : lj
  Current step  : 50000
  Time step     : 0.01
Per MPI rank memory allocation (min/avg/max) = 3.071 | 3.071 | 3.072 Mbytes
   Step          Temp          E_pair         E_mol          TotEng         Press     
     50000   2.9145436      0.22145712     0              3.1287144      3.7022668    
     50500   2.9404598      0.12748994     0              3.0605986      2.9176393    
     51000   2.9305593      0.2030091      0              3.126242       3.2450126    
     51500   3.1261012      0.22395066     0              3.3422366      3.7614928    
     52000   3.141465       0.24545474     0              3.379066       3.8580952    
     52500   2.9983628      0.17149119     0              3.1623581      3.2402989    
     53000   2.8865088      0.13041162     0              3.0097042      2.8163787    
     53500   2.7911777      0.13568388     0              2.9198836      2.7924336    
     54000   2.7561146      0.19395311     0              2.9431774      3.2549774    
     54500   2.6362775      0.20132231     0              2.8310092      3.3904076    
     55000   2.8471224      0.21202152     0              3.0520261      3.5157521    
     55500   2.813453       0.2236131      0              3.0300325      3.6444156    
     56000   2.9311407      0.16829558     0              3.0921084      3.2050234    
     56500   2.936084       0.26030292     0              3.1890467      3.6997147    
     57000   2.8637536      0.27615761     0              3.1327518      3.9445802    
     57500   2.8076798      0.22729813     0              3.0279588      3.6336013    
     58000   2.7089275      0.21929923     0              2.9214545      3.3981381    
     58500   2.5585427      0.24317645     0              2.7953227      3.5015088    
     59000   2.5990273      0.21238344     0              2.8049132      3.3057042    
     59500   2.446487       0.21922167     0              2.6595925      3.4077328    
     60000   2.6635507      0.20641007     0              2.8633019      3.3243144    
     60500   2.6847916      0.27872167     0              2.9568013      3.8261334    
     61000   2.7969932      0.18778677     0              2.9777875      3.3533441    
     61500   2.7941202      0.14665818     0              2.9337931      2.9019994    
     62000   2.6041226      0.17495185     0              2.7725641      3.1751237    
     62500   2.4303087      0.14178005     0              2.566013       2.7601544    
     63000   2.5281438      0.19302827     0              2.7148517      3.2776769    
     63500   2.6113457      0.1573077      0              2.7621251      2.9114615    
     64000   2.6786421      0.17809566     0              2.8500411      3.2596186    
     64500   2.8363463      0.15717962     0              2.9864351      3.1010315    
     65000   2.6515405      0.17356342     0              2.8184751      3.0140182    
     65500   2.5735501      0.16751774     0              2.734634       2.9347288    
     66000   2.4497555      0.19837688     0              2.642008       3.1316695    
     66500   2.4364294      0.14859383     0              2.5789321      2.8412418    
     67000   2.3272672      0.12795565     0              2.4494047      2.5866755    
     67500   2.3396907      0.13523481     0              2.4690763      2.6858152    
     68000   2.3894514      0.14219015     0              2.5256679      2.8047629    
     68500   2.3971814      0.20585739     0              2.5970458      3.2053395    
     69000   2.3951385      0.12869105     0              2.5178417      2.7078473    
     69500   2.3658853      0.18968573     0              2.5496563      3.1247739    
     70000   2.404385       0.11655484     0              2.5149289      2.5953309    
     70500   2.3898392      0.17950245     0              2.563367       3.2271847    
     71000   2.3582758      0.18631671     0              2.5386968      3.0941627    
     71500   2.3801037      0.19256736     0              2.5667208      3.0605454    
     72000   2.5496225      0.12051116     0              2.6637596      2.5716705    
     72500   2.631918       0.22058325     0              2.8459215      3.4539196    
     73000   2.4876373      0.16620541     0              2.6476237      2.9805823    
     73500   2.4244334      0.097384219    0              2.5157565      2.4640238    
     74000   2.3008484      0.13337337     0              2.4284697      2.5497381    
     74500   2.1812725      0.076173534    0              2.2519928      2.0397979    
     75000   2.0426509      0.1351787      0              2.172723       2.45733      
     75500   2.1716211      0.15632008     0              2.3225121      2.7408731    
     76000   2.133613       0.18969873     0              2.3179777      2.9846035    
     76500   2.1018849      0.14388778     0              2.2405179      2.6254435    
     77000   2.1751857      0.12989278     0              2.2996405      2.5775508    
     77500   2.0477195      0.1803734      0              2.2229736      2.7229068    
     78000   2.2204837      0.14753205     0              2.3624645      2.5837034    
     78500   2.2315857      0.14019177     0              2.3661985      2.5557115    
     79000   2.2368755      0.155338       0              2.3866213      2.664071     
     79500   2.1718509      0.13049982     0              2.2969211      2.5103594    
     80000   2.1691234      0.17788169     0              2.3415823      3.0199967    
     80500   2.1218892      0.1500487      0              2.2666332      2.366444     
     81000   2.0701053      0.10621962     0              2.1711496      2.2033809    
     81500   1.958169       0.07739346     0              2.030667       1.9464806    
     82000   2.0077771      0.17434782     0              2.1771054      2.8653344    
     82500   2.0596797      0.17099707     0              2.2255276      2.7514689    
     83000   2.1709385      0.085916105    0              2.2514272      2.1900255    
     83500   1.9898369      0.15404233     0              2.1389047      2.7074267    
     84000   1.9426367      0.22316329     0              2.1609433      3.1404811    
     84500   2.0368371      0.092025154    0              2.1237702      2.1588348    
     85000   2.0486393      0.1169261      0              2.1604438      2.3627356    
     85500   2.0755147      0.13145258     0              2.2017785      2.5695614    
     86000   2.2468085      0.14694371     0              2.3881352      2.7101616    
     86500   2.0544217      0.14244364     0              2.1917293      2.6099997    
     87000   1.983641       0.11228573     0              2.0909676      2.3734906    
     87500   1.9609392      0.099664792    0              2.0557017      2.2985581    
     88000   1.7812973      0.12624775     0              1.9030918      2.3030245    
     88500   1.8932882      0.09547319     0              1.9840281      2.081837     
     89000   1.774508       0.11845803     0              1.8885298      2.0719493    
     89500   1.7012197      0.10569677     0              1.8026634      2.1150245    
     90000   1.7924442      0.13766262     0              1.9256257      2.3372744    
     90500   1.9100699      0.11698055     0              2.0222752      2.3081051    
     91000   1.9296384      0.10166922     0              2.0264835      2.1756659    
     91500   1.8670478      0.09994936     0              1.9623296      2.1664731    
     92000   1.9324311      0.069480976    0              1.997081       1.9177945    
     92500   1.8659644      0.13037739     0              1.9916769      2.5160253    
     93000   1.8451368      0.13148711     0              1.9720111      2.3144208    
     93500   1.7732978      0.11981071     0              1.8886753      2.2930027    
     94000   1.8615791      0.11680978     0              1.9737349      2.2719522    
     94500   1.6867724      0.1594225      0              1.8419779      2.4812365    
     95000   1.6293001      0.10177954     0              1.7270063      2.0146348    
     95500   1.6118183      0.097412447    0              1.7052012      2.0093024    
     96000   1.4420899      0.10897018     0              1.5474549      1.86812      
     96500   1.5849274      0.10226043     0              1.6832255      1.9574456    
     97000   1.6790601      0.075535256    0              1.7503977      1.8238263    
     97500   1.6648446      0.11414134     0              1.7748238      2.1032323    
     98000   1.7340166      0.09790491     0              1.8275865      2.1245084    
     98500   1.5970106      0.11345618     0              1.7064742      2.1354488    
     99000   1.6171606      0.11958895     0              1.7327067      2.1411837    
     99500   1.6083407      0.12395615     0              1.728276       2.2227355    
    100000   1.7194003      0.043280093    0              1.7583819      1.4482766    
    100500   1.5584496      0.05690483     0              1.6114583      1.5595269    
    101000   1.4619401      0.068324619    0              1.5266099      1.6609548    
    101500   1.4576203      0.074106944    0              1.5280832      1.7302483    
    102000   1.4258624      0.11839792     0              1.5406957      2.0319866    
    102500   1.4595616      0.089255971    0              1.5451687      1.8719871    
    103000   1.5538964      0.054380877    0              1.6043925      1.5658611    
    103500   1.613371       0.076917285    0              1.6862548      1.8444349    
    104000   1.5078382      0.074199401    0              1.578268       1.7034663    
    104500   1.503437       0.085815008    0              1.5854934      1.7791051    
    105000   1.4594668      0.091185646    0              1.5470037      1.8329951    
    105500   1.4383648      0.076320626    0              1.5110895      1.6055127    
    106000   1.4703621      0.061114969    0              1.5278012      1.5617501    
    106500   1.4696099      0.076345226    0              1.5422811      1.7245374    
    107000   1.3548631      0.054815772    0              1.4062917      1.4322105    
    107500   1.3283857      0.051547123    0              1.3766119      1.4382819    
    108000   1.2902595      0.061955387    0              1.3489892      1.4648479    
    108500   1.2409895      0.050904824    0              1.2887918      1.3172626    
    109000   1.2338417      0.04334318     0              1.2741003      1.2261194    
    109500   1.301469       0.080586742    0              1.3788021      1.7318491    
    110000   1.3145894      0.070621413    0              1.3819243      1.6993721    
    110500   1.2799626      0.0762976      0              1.3530603      1.6082689    
    111000   1.2542606      0.0958379      0              1.3469628      1.604118     
    111500   1.2450998      0.059103844    0              1.3010909      1.4668707    
    112000   1.1199587      0.064149697    0              1.1813085      1.4056298    
    112500   1.1370293      0.039480684    0              1.1736674      1.1759627    
    113000   1.1020838      0.08098304     0              1.1803116      1.5787056    
    113500   1.125628       0.08297609     0              1.20579        1.5808626    
    114000   1.1066376      0.05955363     0              1.1634246      1.4556488    
    114500   1.1174502      0.055408001    0              1.1700645      1.3388855    
    115000   1.0407062      0.068928277    0              1.1070327      1.4039665    
    115500   1.0528141      0.07911112     0              1.1292931      1.5335105    
    116000   1.0362549      0.059556881    0              1.0932211      1.3301634    
    116500   1.0421139      0.046071308    0              1.0855799      1.2087661    
    117000   1.0530063      0.062714594    0              1.1130883      1.3655939    
    117500   1.1254636      0.088363024    0              1.211013       1.7373297    
    118000   1.0663625      0.040133345    0              1.1038299      1.1355095    
    118500   1.0101447      0.064257404    0              1.0718767      1.4109365    
    119000   0.98347289     0.064861759    0              1.045876       1.2883775    
    119500   0.91466311     0.050000812    0              0.96237726     1.1264379    
    120000   0.91708659     0.035251361    0              0.95004524     1.0731488    
    120500   0.94420155     0.034629482    0              0.97647053     1.0509947    
    121000   0.96588557     0.036960317    0              1.0004312      1.0575145    
    121500   0.94486453     0.075866659    0              1.018369       1.3943694    
    122000   1.0238993      0.054011565    0              1.0753511      1.2556597    
    122500   0.93829659     0.060361481    0              0.99631233     1.3858515    
    123000   0.87567196     0.044743937    0              0.91822671     1.0925873    
    123500   0.85922        0.023344477    0              0.88041643     0.91166335   
    124000   0.81423716     0.037590195    0              0.84979176     0.96199079   
    124500   0.76420958     0.038337266    0              0.80063632     0.97588022   
    125000   0.8070702      0.049291742    0              0.85434427     1.0911915    
    125500   0.81975067     0.045925653    0              0.86362695     1.0680624    
    126000   0.83657675     0.051202984    0              0.88568829     1.1131947    
    126500   0.76504221     0.059631859    0              0.82276147     1.2490696    
    127000   0.74029955     0.060829126    0              0.79927792     1.2147102    
    127500   0.78110831     0.019755739    0              0.79891128     0.76866917   
    128000   0.68771458     0.035855129    0              0.72185042     0.9483375    
    128500   0.72262665     0.024316313    0              0.7451364      0.80978794   
    129000   0.67407647     0.029752329    0              0.70214361     0.83554298   
    129500   0.67229896     0.029651176    0              0.70026939     0.81959884   
    130000   0.67831164     0.033553107    0              0.71016897     0.88246362   
    130500   0.73112257     0.030827134    0              0.7601219      0.90579637   
    131000   0.67602212     0.037290163    0              0.71162223     0.9370991    
    131500   0.65896358     0.023375107    0              0.68069128     0.76335178   
    132000   0.66049596     0.020970463    0              0.67981518     0.72849582   
    132500   0.57124144     0.014900714    0              0.58471405     0.59295512   
    133000   0.56910461     0.026906229    0              0.59458808     0.75994595   
    133500   0.57252011     0.030221441    0              0.60131025     0.76616562   
    134000   0.58154688     0.031860155    0              0.61195317     0.88997239   
    134500   0.55654477     0.024297569    0              0.57945098     0.71790978   
    135000   0.56414755     0.025212584    0              0.58794976     0.71979453   
    135500   0.52645324     0.020281146    0              0.54541825     0.64375087   
    136000   0.49454459     0.015086318    0              0.50839455     0.58788329   
    136500   0.49156429     0.010679979    0              0.50101536     0.50025739   
    137000   0.46245724     0.011575467    0              0.47287657     0.48121327   
    137500   0.44937142     0.020503683    0              0.46875168     0.61586965   
    138000   0.50905261     0.016340559    0              0.52412054     0.58002918   
    138500   0.45486328     0.028359057    0              0.48208518     0.72186097   
    139000   0.43927948     0.013535999    0              0.45171728     0.50944988   
    139500   0.42322188     0.021011718    0              0.44317554     0.62888514   
    140000   0.37832166     0.01786252     0              0.39523838     0.48728725   
    140500   0.36830823     0.018658057    0              0.38604551     0.53840025   
    141000   0.3531303      0.008401171    0              0.36064865     0.37210911   
    141500   0.3293668      0.016772406    0              0.34531579     0.49336706   
    142000   0.329077       0.011549859    0              0.33980417     0.42442897   
    142500   0.32216062     0.013169895    0              0.33452511     0.41573281   
    143000   0.33204053     0.0092107824   0              0.34042121     0.40981157   
    143500   0.29759209     0.0091788341   0              0.30602695     0.35131799   
    144000   0.2739353      0.0094208852   0              0.28267135     0.38313539   
    144500   0.26530573     0.0076043984   0              0.27224686     0.32979834   
    145000   0.21536195     0.01142714     0              0.22625069     0.36642446   
    145500   0.22421046     0.0069218081   0              0.23057175     0.28404657   
    146000   0.20069162     0.0039554823   0              0.20414538     0.23077166   
    146500   0.20461817     0.0042319682   0              0.20833859     0.23321675   
    147000   0.19290347     0.0037531709   0              0.19617438     0.20495317   
    147500   0.18366853     0.0076251207   0              0.19083448     0.31374175   
    148000   0.15246093     0.0061423411   0              0.15822212     0.24068015   
    148500   0.13872907     0.0029192992   0              0.14130155     0.17480175   
    149000   0.1289368      0.0038293477   0              0.1324438      0.17307909   
    149500   0.1084573      0.0015494172   0              0.10973557     0.11960794   
    150000   0.10172147     0.0031003618   0              0.10456753     0.16230145   
Loop time of 1.133 on 10 procs for 100000 steps with 400 atoms

Performance: 76257580.945 tau/day, 88261.089 timesteps/s, 35.304 Matom-step/s
99.3% CPU use with 10 MPI tasks x 1 OpenMP threads

MPI task timing breakdown:
Section |  min time  |  avg time  |  max time  |%varavg| %total
---------------------------------------------------------------
Pair    | 0.049509   | 0.0503     | 0.050895   |   0.2 |  4.44
Neigh   | 0.098664   | 0.10075    | 0.10229    |   0.3 |  8.89
Comm    | 0.53662    | 0.54692    | 0.55499    |   0.8 | 48.27
Output  | 0.014555   | 0.014642   | 0.01519    |   0.2 |  1.29
Modify  | 0.22021    | 0.22927    | 0.2472     |   1.7 | 20.24
Other   |            | 0.1911     |            |       | 16.87

Nlocal:             40 ave          43 max          36 min
Histogram: 1 0 1 0 1 3 0 2 1 1
Nghost:             30 ave          35 max          27 min
Histogram: 3 1 0 2 0 1 1 1 0 1
Neighs:           37.8 ave          45 max          32 min
Histogram: 3 0 0 1 1 2 1 1 0 1

Total # of neighbors = 378
Ave neighs/atom = 0.945
Neighbor list builds = 24843
Dangerous builds = 0
Total wall time: 0:00:01
