LAMMPS (15 Sep 2022)
OMP_NUM_THREADS environment is not set. Defaulting to 1 thread. (src/comm.cpp:98)
  using 1 OpenMP thread(s) per MPI task
Lattice spacing in x,y,z = 0.95346259 0.95346259 0.95346259
Created orthogonal box = (0 0 -0.47673129) to (19.069252 19.069252 0.47673129)
  5 by 2 by 1 MPI processor grid
Created 400 atoms
  using lattice units in orthogonal box = (0 0 -0.47673129) to (19.069252 19.069252 0.47673129)
  create_atoms CPU = 0.000 seconds
Generated 0 of 0 mixed pair_coeff terms from geometric mixing rule
Neighbor list info ...
  update: every = 1 steps, delay = 0 steps, check = yes
  max neighbors/atom: 2000, page size: 100000
  master list distance cutoff = 1.3
  ghost atom cutoff = 1.3
  binsize = 0.65, bins = 30 30 2
  1 neighbor lists, perpetual/occasional/extra = 1 0 0
  (1) pair lj/cut, perpetual
      attributes: half, newton on
      pair build: half/bin/atomonly/newton
      stencil: half/bin/2d
      bin: standard
Setting up Verlet run ...
  Unit style    : lj
  Current step  : 0
  Time step     : 0.01
Per MPI rank memory allocation (min/avg/max) = 3.048 | 3.048 | 3.048 Mbytes
   Step          Temp          E_pair         E_mol          TotEng         Press     
         0   3              2.19122        0              5.18372        61.445802    
       500   2.9084634      2.5804569      0              5.4816491      51.761896    
      1000   3.0970628      2.1907072      0              5.2800273      46.422263    
      1500   2.9695146      2.0270093      0              4.9891001      44.169725    
      2000   3.1635268      2.0537883      0              5.2094063      44.521606    
      2500   2.9573858      2.0362231      0              4.9862154      43.872554    
      3000   2.9919259      2.0873802      0              5.0718263      44.754094    
      3500   3.1839037      1.8890698      0              5.0650137      42.981439    
      4000   3.303582       1.9078416      0              5.2031646      42.425337    
      4500   3.0703045      1.9243334      0              4.9869622      42.351625    
      5000   2.8030903      2.0195994      0              4.815682       44.178436    
      5500   3.0815066      2.096608       0              5.1704108      45.342108    
      6000   2.6769834      1.9439201      0              4.6142111      42.260364    
      6500   3.0660607      1.8804106      0              4.9388061      41.944428    
      7000   3.0729917      1.9463448      0              5.011654       43.686093    
      7500   3.0134734      2.1223312      0              5.1282709      45.092254    
      8000   3.0842273      2.3946496      0              5.4711664      49.117676    
      8500   2.9208739      2.0677826      0              4.9813542      45.089307    
      9000   3.1663728      2.1412632      0              5.2997201      45.079736    
      9500   3.2642633      1.9916167      0              5.2477193      43.799828    
     10000   3.508907       1.9705431      0              5.4706779      43.476602    
     10500   3.0458469      2.0019456      0              5.0401779      43.784979    
     11000   2.9602096      2.0062902      0              4.9590992      43.60512     
     11500   2.8549437      2.0606924      0              4.9084988      44.167303    
     12000   2.8719618      1.9460565      0              4.8108385      42.439826    
     12500   3.0879549      2.1447207      0              5.2249558      45.582541    
     13000   3.3785407      1.9394774      0              5.3095718      43.24361     
     13500   3.0622534      2.2990432      0              5.353641       48.295129    
     14000   2.8036408      2.2848781      0              5.0815098      46.859355    
     14500   3.141626       1.8265554      0              4.9603273      42.143231    
     15000   2.7931658      2.1157483      0              4.9019312      45.622026    
     15500   2.9683681      2.2234412      0              5.1843883      46.027935    
     16000   2.8347225      2.079426       0              4.9070617      44.321028    
     16500   2.8158609      2.0378504      0              4.8466717      43.262209    
     17000   2.9661947      2.020638       0              4.9794172      43.815699    
     17500   3.0109267      1.9892633      0              4.9926627      43.52872     
     18000   2.9763624      2.0160604      0              4.9849819      43.504842    
     18500   2.9174412      2.0633334      0              4.973481       44.655436    
     19000   3.0226441      2.2450161      0              5.2601036      46.6461      
     19500   3.204072       2.1209892      0              5.317051       44.95774     
     20000   3.2699145      1.962093       0              5.2238327      43.04595     
     20500   3.1841881      2.1038594      0              5.2800871      45.002293    
     21000   2.9136158      2.1344464      0              5.0407782      44.545559    
     21500   3.0747395      1.9214194      0              4.9884721      42.538134    
     22000   2.9457251      2.021845       0              4.9602058      42.953055    
     22500   2.8949802      2.0583357      0              4.9460784      43.492732    
     23000   3.1221858      1.9425713      0              5.0569516      42.714757    
     23500   2.8486623      2.178843       0              5.0203837      46.219076    
     24000   2.9365714      1.9736124      0              4.9028424      43.151716    
     24500   2.9710127      2.0269786      0              4.9905638      43.106868    
     25000   3.0492068      2.0668898      0              5.1084736      44.296394    
     25500   3.0181128      2.084323       0              5.0948905      44.901835    
     26000   3.0365609      1.9248042      0              4.9537737      42.473881    
     26500   2.9522353      2.0694783      0              5.014333       44.194719    
     27000   3.302198       1.9503373      0              5.2442798      43.162333    
     27500   2.9577076      2.0195242      0              4.9698375      43.872338    
     28000   3.1698897      2.2623173      0              5.4242823      47.489919    
     28500   2.981125       2.0780996      0              5.0517718      44.359533    
     29000   2.8496117      2.2045352      0              5.0470229      46.182233    
     29500   3.0680905      1.8933067      0              4.9537269      41.963131    
     30000   2.8304769      2.1016202      0              4.9250209      45.03309     
     30500   2.8418305      1.9430471      0              4.7777731      42.161543    
     31000   2.9699791      2.1111579      0              5.073712       45.310083    
     31500   3.1340922      2.2870071      0              5.4132641      47.71481     
     32000   2.818291       2.269579       0              5.0808243      46.752526    
     32500   3.2002531      2.2386469      0              5.4308993      46.774215    
     33000   2.8320775      2.0905631      0              4.9155605      44.463657    
     33500   2.9458148      2.1385639      0              5.0770141      45.220736    
     34000   2.9606344      1.7022219      0              4.6554547      38.873228    
     34500   2.9182703      1.9122439      0              4.8232185      42.694402    
     35000   2.8607271      2.2094355      0              5.0630108      46.261023    
     35500   3.0204921      2.1903533      0              5.2032942      45.084972    
     36000   3.3451201      2.2894197      0              5.6261771      47.789233    
     36500   2.9236192      1.9950365      0              4.9113467      42.708727    
     37000   2.9545718      2.0616229      0              5.0088083      44.464639    
     37500   3.1356642      2.1041799      0              5.2320049      45.418575    
     38000   3.3826826      2.2727094      0              5.6469352      47.901941    
     38500   2.9525033      1.9485059      0              4.8936279      42.662268    
     39000   3.0505293      1.8980872      0              4.9409902      42.21201     
     39500   2.900783       1.9597806      0              4.8533117      42.52165     
     40000   3.064219       2.2271484      0              5.2837069      46.083214    
     40500   3.0058634      1.9765488      0              4.9748976      43.707155    
     41000   3.2326578      2.0096637      0              5.2342399      43.521792    
     41500   2.9692592      1.8765674      0              4.8384035      41.256594    
     42000   2.9544923      2.1216904      0              5.0687965      45.051979    
     42500   2.981716       1.9681729      0              4.9424347      43.619727    
     43000   2.8490008      2.0213178      0              4.8631961      43.629688    
     43500   3.0736477      2.0535531      0              5.1195167      43.519718    
     44000   3.224402       2.186051       0              5.402392       46.815366    
     44500   2.9563176      2.1329407      0              5.0818676      44.898881    
     45000   3.0363028      1.9738119      0              5.0025239      43.658442    
     45500   3.1050079      1.8793526      0              4.976598       42.147287    
     46000   3.0177784      1.9527212      0              4.9629551      43.275425    
     46500   2.7185751      2.1434457      0              4.8552243      44.84831     
     47000   3.0183661      2.3210775      0              5.3318977      47.561467    
     47500   2.9158199      2.0011371      0              4.9096674      43.866179    
     48000   2.9311459      2.072665       0              4.9964831      44.683751    
     48500   2.9739672      2.1547905      0              5.1213228      45.824484    
     49000   3.3389492      1.9871241      0              5.317726       43.722329    
     49500   2.952227       1.8637332      0              4.8085796      41.546854    
     50000   2.906018       2.2725059      0              5.1712588      46.178248    
Loop time of 0.706874 on 10 procs for 50000 steps with 400 atoms

Performance: 61114181.332 tau/day, 70734.006 timesteps/s, 28.294 Matom-step/s
99.2% CPU use with 10 MPI tasks x 1 OpenMP threads

MPI task timing breakdown:
Section |  min time  |  avg time  |  max time  |%varavg| %total
---------------------------------------------------------------
Pair    | 0.07814    | 0.081729   | 0.085597   |   0.8 | 11.56
Neigh   | 0.082973   | 0.084386   | 0.086047   |   0.4 | 11.94
Comm    | 0.3139     | 0.3206     | 0.32749    |   0.7 | 45.35
Output  | 0.0011595  | 0.0015612  | 0.0050675  |   3.0 |  0.22
Modify  | 0.11116    | 0.11695    | 0.12288    |   1.1 | 16.54
Other   |            | 0.1017     |            |       | 14.38

Nlocal:             40 ave          43 max          38 min
Histogram: 2 0 1 0 4 0 2 0 0 1
Nghost:             45 ave          49 max          41 min
Histogram: 1 2 0 1 0 2 0 2 1 1
Neighs:          118.9 ave         126 max         113 min
Histogram: 2 0 2 1 0 1 2 0 1 1

Total # of neighbors = 1189
Ave neighs/atom = 2.9725
Neighbor list builds = 16853
Dangerous builds = 0
Generated 0 of 0 mixed pair_coeff terms from geometric mixing rule
Setting up Verlet run ...
  Unit style    : lj
  Current step  : 50000
  Time step     : 0.01
Per MPI rank memory allocation (min/avg/max) = 3.071 | 3.071 | 3.071 Mbytes
   Step          Temp          E_pair         E_mol          TotEng         Press     
     50000   2.906018       2.2725059      0              5.1712588      46.178248    
     50500   3.0689397      2.0454735      0              5.1067409      43.9803      
     51000   3.123475       1.9680069      0              5.0836732      42.812821    
     51500   3.0892136      2.0791086      0              5.1605992      44.487048    
     52000   3.108677       2.0449241      0              5.1458293      43.293798    
     52500   3.0512615      2.1689353      0              5.2125686      46.009424    
     53000   3.0828384      2.1587321      0              5.2338633      45.661733    
     53500   3.1273697      2.142037       0              5.2615883      44.864001    
     54000   3.0383843      1.7453408      0              4.7761291      39.882764    
     54500   2.8850943      1.7980917      0              4.6759732      40.884659    
     55000   3.0316872      1.9165624      0              4.9406704      42.30917     
     55500   2.4656755      1.9635094      0              4.4230207      41.856726    
     56000   2.7522475      1.8732672      0              4.6186341      41.537981    
     56500   2.7303495      1.5945519      0              4.3180755      37.303112    
     57000   2.502576       2.0645242      0              4.5608438      43.222154    
     57500   2.7235038      1.9372028      0              4.6538979      42.051397    
     58000   2.9365003      1.9614503      0              4.8906093      42.905841    
     58500   2.6710672      1.5908752      0              4.2552647      37.531614    
     59000   2.6744099      1.8402697      0              4.5079936      40.191401    
     59500   2.5596536      1.9767166      0              4.5299711      42.859742    
     60000   2.761641       1.930479       0              4.6852159      41.903899    
     60500   2.8352938      1.7106107      0              4.5388163      39.421321    
     61000   2.8198763      1.9174618      0              4.7302884      42.126423    
     61500   2.6726322      1.7978599      0              4.4638105      39.843182    
     62000   2.6302905      1.7569333      0              4.3806481      39.920906    
     62500   2.5059237      1.7860021      0              4.2856609      39.70815     
     63000   2.7997108      1.623094       0              4.4158055      38.348704    
     63500   2.866646       1.6369612      0              4.4964406      38.403211    
     64000   2.9157795      1.8520555      0              4.7605456      41.075494    
     64500   2.6023895      1.7191105      0              4.314994       38.96653     
     65000   2.4646723      1.869839       0              4.3283496      41.749494    
     65500   2.5488769      1.7004957      0              4.2430003      38.903135    
     66000   2.4901756      1.8487387      0              4.3326889      40.559726    
     66500   2.5146421      1.7443808      0              4.2527364      39.142188    
     67000   2.6131639      1.5471636      0              4.1537946      36.442       
     67500   2.5182187      1.7211746      0              4.2330977      39.026783    
     68000   2.5847979      1.7015035      0              4.2798394      38.621159    
     68500   2.3406145      1.7747592      0              4.1095222      39.687237    
     69000   2.4681762      1.5825634      0              4.0445692      36.459811    
     69500   2.3472013      1.6642743      0              4.0056076      38.311845    
     70000   2.3076413      1.6132697      0              3.915142       36.61488     
     70500   2.4209711      1.7139377      0              4.1288563      38.119361    
     71000   2.6059996      1.7143191      0              4.3138037      38.723605    
     71500   2.5805523      1.6340084      0              4.2081094      37.35149     
     72000   2.5004478      1.636387       0              4.1305837      37.64892     
     72500   2.429113       1.4993783      0              3.9224185      34.784683    
     73000   2.2649326      1.6368135      0              3.8960837      36.799482    
     73500   2.2542071      1.62149        0              3.8700616      36.805213    
     74000   2.3404522      1.5310532      0              3.8656543      35.458388    
     74500   2.3845333      1.4635134      0              3.8420853      35.069054    
     75000   2.2905762      1.562402       0              3.8472517      36.467203    
     75500   2.2006254      1.5854431      0              3.780567       36.694755    
     76000   2.3247716      1.573458       0              3.8924177      36.463644    
     76500   2.2200331      1.5070267      0              3.7215098      35.364685    
     77000   2.1547642      1.4128231      0              3.5622005      34.685864    
     77500   2.201819       1.5142565      0              3.710571       36.237085    
     78000   2.3887476      1.4818615      0              3.8646372      34.819937    
     78500   2.2758524      1.5790757      0              3.8492384      36.388977    
     79000   2.0821251      1.4334292      0              3.510349       34.885618    
     79500   2.0441912      1.4561938      0              3.4952745      33.954331    
     80000   2.2707659      1.148881       0              3.41397        30.07835     
     80500   1.9494416      1.446847       0              3.391415       34.763812    
     81000   1.8956758      1.4505459      0              3.3414826      33.831603    
     81500   2.0131389      1.2400096      0              3.2481157      31.357506    
     82000   1.9251113      1.3131021      0              3.2334006      32.037045    
     82500   2.0544101      1.4214354      0              3.4707095      34.405716    
     83000   2.0680292      1.3961046      0              3.4589637      33.88757     
     83500   2.0265112      1.3964851      0              3.41793        33.844968    
     84000   2.1612929      1.2378872      0              3.3937769      30.967848    
     84500   2.0395587      1.3144104      0              3.3488702      32.403661    
     85000   1.9657835      1.3320763      0              3.2929454      32.300005    
     85500   1.9646684      1.3075142      0              3.2672709      31.5849      
     86000   1.7543791      1.4769016      0              3.2268947      34.384737    
     86500   2.1606334      1.5005588      0              3.6557906      35.378291    
     87000   1.953883       1.3802362      0              3.3292345      32.898986    
     87500   1.9826234      1.2786706      0              3.2563374      31.470097    
     88000   1.8699706      1.3793366      0              3.2446323      33.155108    
     88500   1.9248727      1.2048985      0              3.124959       30.707575    
     89000   1.9684745      1.3292608      0              3.2928141      32.508681    
     89500   1.9483088      1.2778038      0              3.2212418      32.311865    
     90000   1.8573999      1.4030396      0              3.2557961      33.947193    
     90500   1.9102222      1.2742977      0              3.1797443      31.633094    
     91000   1.8352487      1.3009162      0              3.1315768      31.706679    
     91500   1.8089855      1.2723845      0              3.0768475      32.109443    
     92000   1.7095788      1.2217021      0              2.9270069      30.470355    
     92500   1.7011236      1.1671832      0              2.8640541      29.358428    
     93000   1.8361365      1.1028778      0              2.934424       28.680403    
     93500   1.7249828      1.0934369      0              2.8141073      28.942826    
     94000   1.6062517      1.023946       0              2.6261821      27.702453    
     94500   1.6153709      1.1146563      0              2.7259887      29.002072    
     95000   1.6434035      1.1459899      0              2.7852849      29.064768    
     95500   1.7550106      1.0023848      0              2.7530078      27.048306    
     96000   1.7383542      1.0801193      0              2.8141276      28.849053    
     96500   1.7145382      1.1481683      0              2.8584202      29.556303    
     97000   1.6459224      1.1128894      0              2.7546969      28.732808    
     97500   1.6119223      1.1318169      0              2.7397094      28.040135    
     98000   1.7097088      1.0507279      0              2.7561624      27.96914     
     98500   1.6233968      1.074857       0              2.6941952      28.21072     
     99000   1.5592205      1.1280029      0              2.6833254      29.614973    
     99500   1.5176452      0.91125519     0              2.4251063      25.177688    
    100000   1.4749391      0.98792707     0              2.4591788      26.061611    
    100500   1.5680663      0.93131672     0              2.4954629      25.829388    
    101000   1.5975602      0.93700947     0              2.5305757      25.623624    
    101500   1.4613337      1.0246698      0              2.4823502      27.211415    
    102000   1.5784776      0.98462942     0              2.5591609      26.792776    
    102500   1.5158669      1.0211283      0              2.5332055      27.658503    
    103000   1.5434284      0.963092       0              2.5026618      26.55842     
    103500   1.5477706      0.96409544     0              2.5079967      26.82081     
    104000   1.5171301      0.99082083     0              2.5041581      26.581178    
    104500   1.3710981      0.93095588     0              2.2986262      25.480142    
    105000   1.4293458      0.86740867     0              2.2931811      24.314292    
    105500   1.3524709      0.86457291     0              2.2136627      24.329188    
    106000   1.42662        0.81710777     0              2.2401612      23.350235    
    106500   1.2786062      0.87598958     0              2.1513992      24.568513    
    107000   1.2985697      0.8916805      0              2.1870038      24.76993     
    107500   1.3525966      0.8637591      0              2.2129742      24.321742    
    108000   1.3865097      0.8901596      0              2.273203       24.945023    
    108500   1.4385148      0.86351691     0              2.2984354      23.93942     
    109000   1.3255912      0.91121451     0              2.2334917      25.05923     
    109500   1.2965898      0.79727279     0              2.0906212      23.474249    
    110000   1.309073       0.75909327     0              2.0648936      22.273074    
    110500   1.0704933      0.94001623     0              2.0078333      25.400267    
    111000   1.2740612      0.72981961     0              2.0006957      21.929668    
    111500   1.1554469      0.8202332      0              1.9727915      23.872484    
    112000   1.2028153      0.7106297      0              1.9104379      21.362064    
    112500   1.1002823      0.82525733     0              1.9227889      23.694899    
    113000   1.0973903      0.80698315     0              1.90163        22.725669    
    113500   1.1213872      0.76082652     0              1.8794103      22.047481    
    114000   1.1227497      0.68620247     0              1.8061453      21.04117     
    114500   1.1056103      0.66633631     0              1.7691826      20.488089    
    115000   1.1123656      0.68364062     0              1.7932253      21.085478    
    115500   1.0491604      0.68230521     0              1.7288427      20.562776    
    116000   1.0985631      0.70718696     0              1.8030037      21.484526    
    116500   1.0936131      0.71588243     0              1.8067615      21.652137    
    117000   1.0672434      0.67121943     0              1.7357947      20.524943    
    117500   1.0001231      0.68788454     0              1.6855073      20.571687    
    118000   1.0323629      0.62435499     0              1.654137       19.713361    
    118500   0.94499089     0.68201923     0              1.6246476      20.58138     
    119000   1.0145786      0.70429734     0              1.7163395      20.977481    
    119500   0.99868384     0.74978462     0              1.7459718      22.058923    
    120000   1.0004383      0.69196089     0              1.6898981      20.863697    
    120500   0.9993644      0.63601539     0              1.6328814      20.161893    
    121000   0.96208808     0.64322932     0              1.6029122      19.526953    
    121500   0.95778376     0.64633594     0              1.6017252      20.29455     
    122000   0.98324752     0.57519221     0              1.5559816      18.661371    
    122500   0.80508851     0.526375       0              1.3294508      17.66864     
    123000   0.85247712     0.56029689     0              1.4106428      17.559955    
    123500   0.89196648     0.60283552     0              1.4925721      19.090889    
    124000   0.9119529      0.62926189     0              1.5389349      19.424638    
    124500   0.86085224     0.53330518     0              1.3920053      17.8731      
    125000   0.82642041     0.57097948     0              1.3953338      18.769481    
    125500   0.7993377      0.53428585     0              1.3316252      17.807456    
    126000   0.76851232     0.49959451     0              1.2661856      16.930126    
    126500   0.80816127     0.47475854     0              1.2808994      16.411837    
    127000   0.81021377     0.50856786     0              1.3167561      17.305347    
    127500   0.83930535     0.52378823     0              1.3609953      17.40075     
    128000   0.77103659     0.50265018     0              1.2717592      16.982161    
    128500   0.76896364     0.45880526     0              1.2258465      16.214816    
    129000   0.7313999      0.46273211     0              1.1923035      16.521695    
    129500   0.67468512     0.48774649     0              1.1607449      16.704315    
    130000   0.67399089     0.46359563     0              1.1359015      15.928636    
    130500   0.71292841     0.41394025     0              1.1250863      15.266398    
    131000   0.68319869     0.40863017     0              1.0901209      14.476179    
    131500   0.68439323     0.39031357     0              1.0729958      14.620756    
    132000   0.58957347     0.40221583     0              0.99031536     14.818528    
    132500   0.62427916     0.38774678     0              1.0104652      14.381899    
    133000   0.63264642     0.39087456     0              1.0219394      13.77516     
    133500   0.62357022     0.39925755     0              1.0212688      14.698724    
    134000   0.61259062     0.3634026      0              0.97446175     13.909551    
    134500   0.5458431      0.35193928     0              0.89641778     13.372995    
    135000   0.5247782      0.33005544     0              0.85352169     12.809771    
    135500   0.50835095     0.31832138     0              0.82540145     12.458665    
    136000   0.51488943     0.29361866     0              0.80722087     11.846719    
    136500   0.48419426     0.31133504     0              0.79431881     12.346279    
    137000   0.45551009     0.35500758     0              0.8093789      13.25007     
    137500   0.4921748      0.32347623     0              0.81442059     12.864358    
    138000   0.4948513      0.29188278     0              0.78549694     11.948198    
    138500   0.46349396     0.26854199     0              0.73087721     11.239914    
    139000   0.40420128     0.28543318     0              0.68862395     11.547562    
    139500   0.42092864     0.2257792      0              0.64565552     10.248113    
    140000   0.37879716     0.22636672     0              0.60421688     10.260436    
    140500   0.36615127     0.24688607     0              0.61212196     10.745831    
    141000   0.36908959     0.2035279      0              0.57169476     9.5267415    
    141500   0.34834801     0.21142566     0              0.5589028      9.8695846    
    142000   0.31254445     0.22516694     0              0.53693003     10.103003    
    142500   0.31743169     0.21034201     0              0.52698011     9.8108408    
    143000   0.29082359     0.20884498     0              0.49894151     9.5801347    
    143500   0.29573714     0.18380829     0              0.47880609     8.8575873    
    144000   0.27594664     0.17649754     0              0.45175432     8.5025882    
    144500   0.28335017     0.15731913     0              0.43996093     8.0839974    
    145000   0.24160453     0.14248518     0              0.38348571     7.4193881    
    145500   0.22873143     0.13651071     0              0.36467031     7.4269314    
    146000   0.19766632     0.14663865     0              0.3438108      7.4599135    
    146500   0.19949343     0.12242032     0              0.32141502     6.7720727    
    147000   0.19506189     0.1344487      0              0.32902293     7.2136168    
    147500   0.16616651     0.10066487     0              0.26641596     6.2709849    
    148000   0.16340002     0.10538886     0              0.26838038     6.3348507    
    148500   0.13950381     0.080490077    0              0.21964512     5.3778797    
    149000   0.12762147     0.078987208    0              0.20628963     5.1967392    
    149500   0.11062587     0.0554757      0              0.165825       4.1647597    
    150000   0.095658217    0.058046548    0              0.15346562     4.46592      
Loop time of 1.32893 on 10 procs for 100000 steps with 400 atoms

Performance: 65014686.426 tau/day, 75248.480 timesteps/s, 30.099 Matom-step/s
99.3% CPU use with 10 MPI tasks x 1 OpenMP threads

MPI task timing breakdown:
Section |  min time  |  avg time  |  max time  |%varavg| %total
---------------------------------------------------------------
Pair    | 0.15097    | 0.15728    | 0.18426    |   2.3 | 11.84
Neigh   | 0.11114    | 0.11421    | 0.12372    |   1.0 |  8.59
Comm    | 0.57956    | 0.61017    | 0.64048    |   2.5 | 45.91
Output  | 0.015588   | 0.015698   | 0.01643    |   0.2 |  1.18
Modify  | 0.20629    | 0.24177    | 0.27113    |   4.4 | 18.19
Other   |            | 0.1898     |            |       | 14.28

Nlocal:             40 ave          42 max          38 min
Histogram: 3 0 1 0 0 2 0 1 0 3
Nghost:           45.8 ave          48 max          43 min
Histogram: 2 0 2 0 1 0 0 0 1 4
Neighs:          118.9 ave         128 max         111 min
Histogram: 1 3 1 0 0 2 0 0 1 2

Total # of neighbors = 1189
Ave neighs/atom = 2.9725
Neighbor list builds = 23249
Dangerous builds = 0
Total wall time: 0:00:02
