ITEM: TIMESTEP
100000
ITEM: NUMBER OF ATOMS
2048
ITEM: BOX BOUNDS pp pp pp
0.0000000000000000e+00 1.2302095357258066e+01
0.0000000000000000e+00 1.2302095357258066e+01
0.0000000000000000e+00 1.2302095357258066e+01
ITEM: ATOMS id type xs ys zs
1229 1 0.153653 0.0186737 0.0149121
47 1 0.309874 0.0405565 0.0303453
1916 1 0.488003 0.0115636 0.0249162
1100 1 0.565743 0.0250958 0.0257278
1152 1 0.694006 0.0225979 0.0342634
965 1 0.779182 0.0510666 0.0349736
1963 1 0.863036 0.0209014 0.0372572
901 1 0.974983 0.0518521 0.0531434
93 1 0.0447615 0.0601775 0.0151146
1273 1 0.214169 0.0633982 0.0533215
272 1 0.274927 0.108782 0.0280178
685 1 0.401433 0.0616138 0.0197508
1752 1 0.701605 0.0941162 0.00812045
473 1 0.846782 0.108545 0.0263946
753 1 0.915771 0.0680498 0.00472125
397 1 0.0929563 0.133105 0.0656058
278 1 0.191066 0.154509 0.0573346
1525 1 0.352186 0.121614 0.0128865
1660 1 0.459424 0.114087 0.0298285
1466 1 0.524132 0.156287 0.0516774
1175 1 0.763543 0.124671 0.0589237
876 1 0.115996 0.204987 0.0456718
962 1 0.195869 0.21819 0.0017829
1463 1 0.272347 0.186227 0.0216193
1873 1 0.409637 0.211223 0.0491216
1009 1 0.484854 0.217444 0.0236763
988 1 0.637122 0.179205 0.0452013
1329 1 0.730791 0.180775 0.000722808
1237 1 0.807958 0.177918 0.00727171
1362 1 0.88789 0.169959 0.0421067
875 1 0.961124 0.211428 0.0277256
1702 1 0.231383 0.267616 0.0524587
1453 1 0.312766 0.253231 0.050141
1739 1 0.571484 0.228434 0.0558635
1486 1 0.705177 0.257309 0.0309417
1244 1 0.835862 0.247299 0.0310779
932 1 0.906386 0.271468 0.0356667
1443 1 0.0803855 0.308141 0.0073564
1621 1 0.153645 0.296815 0.0238909
1749 1 0.380455 0.280341 0.025516
216 1 0.59977 0.294194 0.0198755
1354 1 0.779917 0.29682 0.0469397
1404 1 0.998478 0.284968 0.0201802
553 1 0.0055092 0.362681 0.00533014
1805 1 0.147377 0.387236 0.00284732
1811 1 0.114414 0.352102 0.066041
158 1 0.255933 0.366333 0.0265987
41 1 0.331133 0.361896 0.0509673
415 1 0.408625 0.355635 0.0561262
862 1 0.486584 0.388775 0.0504963
1726 1 0.575505 0.379551 0.0455915
1139 1 0.746897 0.373082 0.0624801
1681 1 0.835223 0.350808 0.00927967
132 1 0.922101 0.348903 0.0269849
202 1 0.0737656 0.414526 0.0188589
769 1 0.216126 0.433401 0.00402955
743 1 0.321169 0.435909 0.00350686
744 1 0.679222 0.39152 0.0283719
1199 1 0.810231 0.418935 0.0424687
313 1 0.888697 0.41781 0.019671
648 1 0.0212484 0.463976 0.0445364
625 1 0.132179 0.477225 0.0100435
640 1 0.436973 0.477029 0.0440775
127 1 0.574737 0.445709 0.011689
1155 1 0.855348 0.483122 0.0370669
1634 1 0.944527 0.481029 0.0625142
560 1 0.37507 0.00935331 0.0683096
1087 1 0.424527 0.0529895 0.104971
666 1 0.580448 0.0354917 0.103599
1589 1 0.791644 0.0127638 0.112239
660 1 0.0486029 0.0733282 0.0972904
1720 1 0.133953 0.0658355 0.0745175
939 1 0.32118 0.0893574 0.0874397
1086 1 0.495092 0.0831138 0.0936216
1477 1 0.729054 0.0569135 0.0962724
56 1 0.819599 0.0905555 0.0986214
825 1 0.915749 0.100038 0.0748379
1031 1 0.159089 0.147567 0.121245
1540 1 0.25136 0.116938 0.111557
1948 1 0.398224 0.12119 0.0823637
535 1 0.46722 0.162711 0.10241
839 1 0.587062 0.113223 0.0667851
1296 1 0.688802 0.131179 0.0963225
52 1 0.986337 0.128677 0.0693676
187 1 0.0294082 0.195823 0.0670805
1967 1 0.0991267 0.205384 0.11961
1742 1 0.25239 0.196563 0.100715
1386 1 0.333087 0.175848 0.0739633
1170 1 0.391652 0.18382 0.129434
36 1 0.60095 0.180027 0.126456
6 1 0.742054 0.20155 0.0729252
581 1 0.820908 0.17028 0.0930126
1862 1 0.951918 0.181878 0.10987
806 1 0.0673331 0.263073 0.0670789
1147 1 0.156572 0.260414 0.10057
1319 1 0.329429 0.236383 0.12811
316 1 0.458317 0.274366 0.0718462
1074 1 0.514599 0.224684 0.126584
403 1 0.638167 0.254322 0.085067
684 1 0.732081 0.272024 0.105684
1776 1 0.81144 0.261748 0.11237
1710 1 0.889276 0.231523 0.101894
1552 1 0.973957 0.258108 0.0924769
1499 1 0.0768964 0.314705 0.120763
856 1 0.34463 0.310024 0.104909
800 1 0.538978 0.296246 0.077311
1822 1 0.666515 0.326299 0.0721907
1450 1 0.200304 0.34158 0.0900659
223 1 0.281712 0.356369 0.115743
1072 1 0.370141 0.387863 0.119371
1123 1 0.432886 0.341473 0.129363
1946 1 0.513144 0.37009 0.126438
1143 1 0.608427 0.344011 0.126343
1686 1 0.831488 0.350445 0.0892415
1990 1 0.907125 0.335576 0.104568
1019 1 0.995879 0.346923 0.124299
933 1 0.0419166 0.397611 0.0875922
94 1 0.150096 0.424805 0.0696698
1958 1 0.286668 0.430797 0.0773405
584 1 0.444886 0.425725 0.111621
448 1 0.609233 0.427827 0.099145
882 1 0.692347 0.390761 0.122326
1162 1 0.785266 0.422214 0.120773
811 1 0.871582 0.439199 0.104286
1717 1 0.964008 0.413891 0.100382
1402 1 0.0909832 0.475869 0.0859577
118 1 0.156433 0.490019 0.122666
441 1 0.214887 0.463759 0.0716151
511 1 0.368941 0.449949 0.0815568
796 1 0.529431 0.449002 0.0811301
931 1 0.655603 0.491076 0.0880018
1909 1 0.732138 0.465843 0.0722402
1665 1 0.0167632 0.0364835 0.181703
972 1 0.155304 0.0137385 0.197823
774 1 0.35759 0.0213915 0.156647
268 1 0.508559 0.0185398 0.140056
1865 1 0.58947 0.0547065 0.197576
707 1 0.667607 0.021474 0.138307
467 1 0.742491 0.000675349 0.165609
1555 1 0.857743 0.0424245 0.153171
303 1 0.932029 0.0437037 0.133709
494 1 0.114932 0.0726816 0.150449
1458 1 0.191206 0.0720716 0.136976
321 1 0.285016 0.0581071 0.149023
367 1 0.39819 0.107957 0.157254
1053 1 0.550718 0.108349 0.144528
154 1 0.635833 0.104239 0.143167
1090 1 0.719104 0.0807161 0.175302
892 1 0.808074 0.0881393 0.186045
1808 1 0.991392 0.102449 0.141731
270 1 0.0644851 0.134823 0.141606
1515 1 0.142364 0.128282 0.196191
963 1 0.22362 0.136552 0.18541
564 1 0.309589 0.144164 0.164503
1432 1 0.474186 0.1237 0.177841
1987 1 0.765031 0.13705 0.138093
498 1 0.877406 0.128193 0.143233
1124 1 0.0231607 0.202751 0.14485
1886 1 0.157341 0.207578 0.172455
1436 1 0.368055 0.221203 0.198891
1324 1 0.460656 0.208772 0.195273
513 1 0.549046 0.187314 0.188223
603 1 0.684359 0.200352 0.134463
20 1 0.7524 0.221674 0.160106
1494 1 0.83429 0.211103 0.16279
1401 1 0.0655471 0.255679 0.175041
1744 1 0.234032 0.267116 0.133521
2026 1 0.288892 0.222843 0.191582
951 1 0.413485 0.261893 0.14365
1753 1 0.574118 0.270761 0.153677
585 1 0.623825 0.224786 0.183908
817 1 0.952734 0.23857 0.173294
1188 1 0.139396 0.280315 0.174894
969 1 0.290747 0.304671 0.178221
791 1 0.483614 0.283467 0.167684
1921 1 0.661944 0.293696 0.145529
247 1 0.721288 0.317039 0.196613
1973 1 0.875498 0.280684 0.175153
967 1 0.0611717 0.374706 0.164412
1601 1 0.140259 0.364603 0.148564
1648 1 0.22373 0.339971 0.180167
2024 1 0.315284 0.378222 0.184069
250 1 0.383431 0.334516 0.189206
1877 1 0.549669 0.347976 0.195967
1320 1 0.765688 0.339868 0.138264
1583 1 0.836429 0.365177 0.167077
354 1 0.930302 0.334125 0.189865
1264 1 0.106686 0.442985 0.167844
310 1 0.219361 0.410621 0.137413
1150 1 0.407727 0.417227 0.187763
279 1 0.48104 0.436435 0.194423
350 1 0.558437 0.430115 0.16693
629 1 0.636022 0.401223 0.173254
1644 1 0.726041 0.40091 0.198532
163 1 0.904765 0.421807 0.183639
420 1 0.990956 0.391407 0.191968
1027 1 0.0310492 0.453307 0.148678
1183 1 0.232166 0.490079 0.15298
874 1 0.306097 0.452452 0.149055
1518 1 0.435779 0.495603 0.18716
1225 1 0.631212 0.478473 0.164824
1908 1 0.723523 0.466021 0.152084
1272 1 0.853701 0.480955 0.16956
1943 1 0.961642 0.493712 0.13866
1730 1 0.0885175 0.0518263 0.222773
1107 1 0.233314 0.0325211 0.208369
30 1 0.303802 0.00121537 0.216472
663 1 0.387279 0.00677219 0.234402
135 1 0.495825 0.00216083 0.221625
1995 1 0.670395 0.0365865 0.222532
1202 1 0.754506 0.043577 0.242082
635 1 0.827908 0.034 0.249408
402 1 0.904056 0.0141773 0.216359
833 1 0.189944 0.0874624 0.254877
970 1 0.268819 0.0990172 0.242594
627 1 0.34352 0.0714818 0.229992
869 1 0.435222 0.0700185 0.229309
736 1 0.951519 0.0726761 0.22556
53 1 0.0278663 0.127697 0.212493
725 1 0.0913577 0.119813 0.261557
824 1 0.409802 0.153805 0.225887
1614 1 0.486226 0.137549 0.253117
955 1 0.562299 0.117179 0.238906
1196 1 0.63918 0.119463 0.21996
1029 1 0.717384 0.11716 0.245523
971 1 0.873668 0.116649 0.226728
1419 1 0.943254 0.146878 0.204769
208 1 0.00526885 0.20263 0.222696
1676 1 0.0833051 0.18094 0.208318
751 1 0.180344 0.183768 0.246888
1421 1 0.32736 0.174722 0.244135
490 1 0.510056 0.212596 0.255915
1469 1 0.590981 0.191806 0.255591
1796 1 0.684339 0.183821 0.21135
618 1 0.787322 0.168838 0.208564
547 1 0.892689 0.207588 0.233312
1307 1 0.0637968 0.240362 0.26009
1951 1 0.141154 0.256397 0.260029
414 1 0.205501 0.254583 0.213667
491 1 0.57301 0.267227 0.228178
1037 1 0.656981 0.247286 0.249811
604 1 0.796555 0.266158 0.208489
570 1 0.943141 0.271604 0.248601
1323 1 0.0170104 0.309213 0.202423
105 1 0.0938921 0.320085 0.231584
1387 1 0.330684 0.305671 0.250334
1164 1 0.414026 0.277985 0.231986
119 1 0.489742 0.294959 0.250337
1179 1 0.626424 0.3258 0.214401
1351 1 0.871232 0.300842 0.256914
1787 1 0.184638 0.353557 0.246907
676 1 0.259624 0.343373 0.260055
1305 1 0.362066 0.386586 0.25069
59 1 0.472981 0.359444 0.200672
1372 1 0.663531 0.38104 0.249493
1033 1 0.780039 0.346023 0.240715
575 1 0.854108 0.37481 0.251249
307 1 0.972932 0.346157 0.263634
750 1 0.052453 0.400713 0.241232
153 1 0.167353 0.420424 0.210386
1064 1 0.287807 0.440564 0.233806
1431 1 0.579684 0.40121 0.250287
1006 1 0.801849 0.423825 0.206098
123 1 0.0979744 0.465587 0.258231
150 1 0.218127 0.488218 0.244784
1847 1 0.356891 0.477791 0.208847
521 1 0.480954 0.476571 0.262404
838 1 0.55334 0.484872 0.226945
378 1 0.682206 0.456379 0.218594
928 1 0.875331 0.460693 0.242828
2006 1 0.966301 0.460637 0.215543
1907 1 0.156712 0.0474297 0.321331
161 1 0.242177 0.0213581 0.290766
492 1 0.332979 0.0208518 0.290759
184 1 0.405765 0.0528108 0.301944
1722 1 0.544673 0.0515668 0.272513
1226 1 0.700988 0.0538855 0.293244
742 1 0.772007 0.0337485 0.320823
1683 1 0.95978 0.0134019 0.284965
471 1 0.0178731 0.0688793 0.270131
953 1 0.0812034 0.076065 0.330419
1994 1 0.34766 0.106547 0.300791
1863 1 0.476307 0.0843639 0.318886
860 1 0.619627 0.0938169 0.296327
1236 1 0.897255 0.0601805 0.279938
1109 1 0.0302443 0.165086 0.288752
832 1 0.147067 0.121811 0.313808
1468 1 0.423942 0.13982 0.312086
1221 1 0.541027 0.1509 0.307579
1586 1 0.720583 0.142297 0.329845
224 1 0.790396 0.111734 0.282407
755 1 0.894022 0.148703 0.313502
1381 1 0.961967 0.134809 0.278291
682 1 0.107079 0.195515 0.309684
1574 1 0.211657 0.173316 0.319612
382 1 0.291284 0.171597 0.321981
790 1 0.399612 0.213396 0.279237
1369 1 0.661791 0.176183 0.288678
2045 1 0.73961 0.193901 0.270513
1358 1 0.830366 0.17694 0.273136
653 1 0.945407 0.211197 0.299172
1843 1 0.00248805 0.268282 0.303146
888 1 0.264487 0.228193 0.272444
1217 1 0.327242 0.252784 0.317526
1719 1 0.466411 0.226228 0.319656
620 1 0.55258 0.242139 0.319542
2002 1 0.692587 0.238017 0.3292
1685 1 0.869944 0.235845 0.313122
398 1 0.125585 0.314754 0.306011
1356 1 0.209067 0.292572 0.290863
1780 1 0.411652 0.281485 0.32285
269 1 0.492947 0.303424 0.332966
647 1 0.552966 0.328873 0.286137
246 1 0.626798 0.312576 0.297172
1194 1 0.700849 0.304532 0.277583
1852 1 0.801786 0.280956 0.289434
628 1 0.930398 0.286 0.331708
1408 1 0.0432231 0.335826 0.300456
835 1 0.185304 0.375046 0.327711
146 1 0.355874 0.351265 0.316363
580 1 0.431054 0.348138 0.282477
1263 1 0.592145 0.378934 0.331491
405 1 0.680358 0.363802 0.331258
693 1 0.815015 0.360195 0.313317
1671 1 0.0392694 0.415797 0.327971
1703 1 0.124688 0.389826 0.274132
180 1 0.23077 0.418324 0.279213
1 1 0.336382 0.430094 0.316472
1352 1 0.416196 0.427454 0.299196
1289 1 0.50167 0.395765 0.279555
637 1 0.634568 0.437088 0.299061
1359 1 0.736297 0.394154 0.290761
574 1 0.874587 0.442484 0.322086
1252 1 0.936524 0.413909 0.271513
803 1 0.00941368 0.474214 0.281347
1535 1 0.186413 0.468322 0.32311
541 1 0.272323 0.476149 0.319836
169 1 0.553591 0.448239 0.313469
768 1 0.713284 0.465339 0.307608
1611 1 0.798404 0.452583 0.284977
1918 1 0.933639 0.492506 0.288682
1556 1 0.0252449 0.0147374 0.34559
1355 1 0.0975325 0.0127065 0.386286
1011 1 0.246083 0.0291827 0.372062
976 1 0.44607 0.0335477 0.38951
1679 1 0.520353 0.0137516 0.383114
1258 1 0.616256 0.0299884 0.358917
363 1 0.933462 0.0555054 0.351806
1207 1 0.00591425 0.098607 0.347024
421 1 0.143307 0.0790669 0.398448
1620 1 0.208829 0.0947229 0.34892
650 1 0.282933 0.0958333 0.340402
1911 1 0.35194 0.0638431 0.366595
706 1 0.421956 0.107476 0.394846
1028 1 0.558062 0.086863 0.350897
34 1 0.674689 0.0815904 0.359826
1622 1 0.767682 0.103192 0.385776
1394 1 0.853436 0.0667279 0.349259
1389 1 0.072909 0.151874 0.367087
1186 1 0.236653 0.162495 0.393355
1534 1 0.484172 0.144184 0.366267
1624 1 0.619059 0.134674 0.36253
818 1 0.822592 0.156425 0.352055
982 1 0.886835 0.126672 0.389153
665 1 0.956948 0.152736 0.368327
1785 1 0.00971382 0.209086 0.3565
406 1 0.154326 0.176229 0.371791
1261 1 0.304208 0.216311 0.391261
1632 1 0.374307 0.199164 0.350232
1549 1 0.504589 0.217114 0.387961
1674 1 0.613943 0.217062 0.360479
900 1 0.7156 0.187384 0.391314
586 1 0.0703551 0.271261 0.337834
1275 1 0.162002 0.245008 0.33671
534 1 0.251427 0.251568 0.344029
597 1 0.453828 0.271101 0.391601
237 1 0.792258 0.228376 0.346401
76 1 0.85107 0.264552 0.38392
1566 1 0.921042 0.227689 0.379808
1790 1 0.203905 0.310528 0.374257
1224 1 0.295496 0.318511 0.359843
1131 1 0.383661 0.320572 0.391908
1962 1 0.547851 0.317657 0.382523
1375 1 0.631373 0.289436 0.380348
1034 1 0.753899 0.311444 0.343352
436 1 0.987568 0.310398 0.373904
1867 1 0.0689262 0.350508 0.376022
1020 1 0.327404 0.388083 0.388128
1649 1 0.451278 0.38019 0.358714
1853 1 0.892334 0.353625 0.337606
700 1 0.969751 0.382067 0.334081
1083 1 0.113999 0.420302 0.353025
843 1 0.198359 0.421837 0.391396
396 1 0.263593 0.39312 0.344212
7 1 0.527545 0.397643 0.377369
1704 1 0.743046 0.398415 0.371918
392 1 0.837963 0.396485 0.381261
1399 1 0.919385 0.417556 0.392032
1668 1 0.0642208 0.494023 0.341107
1835 1 0.135624 0.499527 0.393712
439 1 0.305385 0.484264 0.393157
758 1 0.387002 0.450106 0.377673
1168 1 0.479542 0.470731 0.348375
601 1 0.611228 0.464422 0.370682
619 1 0.725122 0.485984 0.387247
987 1 0.806064 0.472097 0.363377
1797 1 0.903526 0.491318 0.379423
917 1 0.97503 0.465827 0.35592
1558 1 0.085726 0.0335053 0.464642
808 1 0.172161 0.0233415 0.450541
895 1 0.311282 0.0224143 0.418979
848 1 0.642626 0.0228877 0.440163
734 1 0.721352 0.0259255 0.4212
474 1 0.801366 0.00971387 0.405821
1397 1 0.881127 0.0274727 0.42963
1479 1 0.961174 0.010175 0.404561
462 1 0.0547756 0.0779192 0.408111
500 1 0.225111 0.089138 0.432022
1144 1 0.373586 0.0615844 0.440014
842 1 0.496015 0.0818459 0.418775
911 1 0.57315 0.0569004 0.425608
1095 1 0.62559 0.106068 0.449268
1032 1 0.831378 0.088725 0.42575
262 1 0.971315 0.0904713 0.415548
1636 1 0.10147 0.141235 0.456464
1637 1 0.181765 0.157104 0.451302
599 1 0.315758 0.120522 0.408896
1348 1 0.370256 0.137075 0.462734
1495 1 0.557518 0.164406 0.418384
1712 1 0.699926 0.128439 0.440294
1559 1 0.784553 0.157026 0.437785
689 1 0.924218 0.157473 0.463715
1757 1 0.0282989 0.172749 0.432245
178 1 0.096219 0.210236 0.423275
696 1 0.430698 0.19082 0.409912
989 1 0.491071 0.181925 0.45964
1761 1 0.637356 0.182396 0.4265
117 1 0.852298 0.19023 0.422704
1133 1 0.968609 0.220267 0.436996
1573 1 0.0389971 0.261431 0.429622
540 1 0.19481 0.229887 0.414153
505 1 0.374166 0.245628 0.414567
1325 1 0.498167 0.261426 0.454579
1823 1 0.570238 0.247037 0.413679
453 1 0.680456 0.255273 0.426405
562 1 0.778392 0.245025 0.431553
1813 1 0.908229 0.263994 0.465526
605 1 0.120099 0.283386 0.400041
1940 1 0.187366 0.303184 0.453855
428 1 0.265909 0.283888 0.426122
1697 1 0.419655 0.300582 0.459892
407 1 0.601739 0.305648 0.453487
309 1 0.699175 0.32462 0.405846
1817 1 0.814611 0.328471 0.417833
1407 1 0.89479 0.326113 0.409951
924 1 0.974407 0.306553 0.447842
1845 1 0.00487875 0.375967 0.40619
1204 1 0.0666252 0.340844 0.452579
998 1 0.145485 0.357974 0.418506
1192 1 0.248798 0.367449 0.42093
1854 1 0.322515 0.337561 0.463989
1819 1 0.402741 0.382304 0.457637
1602 1 0.475045 0.345186 0.426164
1288 1 0.620242 0.366089 0.40701
131 1 0.721755 0.384124 0.464824
657 1 0.928664 0.379787 0.458536
1591 1 0.0506476 0.440857 0.407047
692 1 0.13935 0.443811 0.44628
340 1 0.46365 0.426088 0.420141
1058 1 0.569978 0.425252 0.438763
622 1 0.675002 0.43523 0.419927
1022 1 0.778125 0.43593 0.431575
101 1 0.857807 0.439764 0.448426
588 1 0.257043 0.448044 0.445162
129 1 0.364042 0.483692 0.452112
369 1 0.549092 0.495746 0.403565
1001 1 0.936352 0.466195 0.461584
733 1 0.00188379 0.0481665 0.470285
383 1 0.246632 0.0208414 0.486585
1577 1 0.416551 0.0226922 0.510624
2048 1 0.492458 0.0282948 0.492138
747 1 0.847716 0.0542004 0.497057
67 1 0.916331 0.011359 0.509769
1487 1 0.0605815 0.0872607 0.524936
87 1 0.140927 0.0859542 0.493395
1380 1 0.225068 0.106432 0.515659
1298 1 0.315742 0.086152 0.488431
766 1 0.444701 0.104775 0.478394
941 1 0.538865 0.107403 0.474329
823 1 0.633697 0.0611085 0.513851
384 1 0.70774 0.0691005 0.506929
737 1 0.77368 0.0558572 0.471566
213 1 0.931939 0.0822334 0.484612
615 1 0.269407 0.151257 0.470726
1367 1 0.440968 0.166143 0.528228
1080 1 0.666158 0.154632 0.50888
429 1 0.756019 0.127782 0.520253
545 1 0.837511 0.12883 0.52353
50 1 0.989458 0.132904 0.492368
409 1 0.0326821 0.216851 0.498297
1276 1 0.137436 0.190828 0.506721
1113 1 0.217789 0.198552 0.510679
1856 1 0.351415 0.189967 0.521108
741 1 0.567531 0.17825 0.495684
79 1 0.721252 0.207468 0.473882
879 1 0.798559 0.196327 0.514727
1645 1 0.873038 0.198503 0.502146
1412 1 0.111638 0.26584 0.486398
1705 1 0.260173 0.270777 0.519923
925 1 0.304929 0.22275 0.472218
1259 1 0.355269 0.275757 0.502957
1565 1 0.408992 0.22384 0.478007
1564 1 0.465559 0.272836 0.51954
1368 1 0.565457 0.255829 0.52573
1501 1 0.632124 0.239069 0.484557
483 1 0.825989 0.264323 0.485117
1482 1 0.949766 0.224576 0.531787
171 1 0.0273869 0.296531 0.508809
1657 1 0.619001 0.313197 0.53031
40 1 0.677075 0.312752 0.476069
782 1 0.757349 0.304635 0.478916
322 1 0.940408 0.30637 0.529042
1770 1 0.465674 0.365174 0.512416
1934 1 0.534082 0.367331 0.473162
815 1 0.63364 0.387918 0.479592
311 1 0.806015 0.370756 0.485343
767 1 0.877638 0.335506 0.491375
844 1 0.957389 0.382965 0.530013
2012 1 0.000752674 0.413524 0.472174
543 1 0.076306 0.412992 0.478423
1357 1 0.198992 0.393463 0.473622
334 1 0.269123 0.417492 0.521654
1315 1 0.329704 0.415881 0.472629
183 1 0.508102 0.444371 0.4888
106 1 0.579502 0.415391 0.527736
813 1 0.684223 0.430424 0.522763
591 1 0.867042 0.411036 0.53282
1732 1 0.160659 0.450809 0.524426
1265 1 0.305528 0.484302 0.509076
85 1 0.42868 0.452179 0.483306
1230 1 0.616877 0.480236 0.482372
1841 1 0.699672 0.495527 0.484751
497 1 0.784703 0.466213 0.509387
22 1 0.887529 0.486871 0.51715
1913 1 0.0640631 0.0320482 0.599146
611 1 0.126289 0.0246267 0.541764
1919 1 0.201794 0.0321725 0.557225
1470 1 0.279118 0.0424778 0.557937
713 1 0.373145 0.0216723 0.572625
55 1 0.45064 0.002116 0.582596
1461 1 0.558853 0.0490684 0.536963
1812 1 0.713007 0.0297325 0.568732
1040 1 0.859952 0.0217087 0.573118
440 1 0.984297 0.0294074 0.548558
1615 1 0.149031 0.0957009 0.574309
1416 1 0.236267 0.101791 0.594606
1160 1 0.377542 0.104182 0.536775
1939 1 0.465278 0.0737355 0.547669
610 1 0.646025 0.0723468 0.592302
1520 1 0.787062 0.0623413 0.554597
1423 1 0.917813 0.0724558 0.565199
32 1 0.0034821 0.117056 0.570459
1311 1 0.0663878 0.165656 0.548288
778 1 0.285369 0.149747 0.546704
191 1 0.378585 0.16156 0.591635
1336 1 0.516455 0.152057 0.549728
805 1 0.589823 0.134859 0.558151
1706 1 0.657157 0.166464 0.59951
771 1 0.713564 0.113753 0.588736
1099 1 0.799752 0.157913 0.584588
1723 1 0.915524 0.143046 0.542115
1537 1 0.179227 0.17459 0.577855
463 1 0.247995 0.213146 0.58659
1879 1 0.724691 0.200624 0.562275
1117 1 0.868656 0.195412 0.586885
134 1 0.016246 0.247575 0.570288
1342 1 0.115347 0.225616 0.570863
1795 1 0.179957 0.268346 0.53534
1062 1 0.321971 0.267473 0.581668
1042 1 0.394514 0.239959 0.572263
909 1 0.498335 0.22419 0.570341
1203 1 0.623248 0.247496 0.579404
1303 1 0.693316 0.273652 0.54532
1803 1 0.776751 0.273735 0.547783
827 1 0.873441 0.26517 0.549096
724 1 0.943162 0.268523 0.59844
1894 1 0.0937606 0.300064 0.568028
865 1 0.164397 0.325267 0.586933
1618 1 0.239401 0.292666 0.599363
1888 1 0.407113 0.316231 0.547945
1448 1 0.469266 0.299073 0.591887
1827 1 0.530432 0.32818 0.55038
883 1 0.0392919 0.362186 0.548489
1898 1 0.118923 0.370806 0.536827
726 1 0.226638 0.348879 0.534945
710 1 0.311356 0.346658 0.54726
1617 1 0.375094 0.388324 0.534335
99 1 0.721309 0.354752 0.538633
1142 1 0.829976 0.342123 0.551191
193 1 0.900941 0.335906 0.590374
111 1 0.0465801 0.437268 0.548737
773 1 0.192907 0.406347 0.582241
2010 1 0.271896 0.395598 0.599847
1639 1 0.434945 0.441467 0.571405
1584 1 0.510719 0.411907 0.565464
1818 1 0.687363 0.407906 0.599559
1698 1 0.772508 0.410452 0.565427
17 1 0.917852 0.417358 0.590318
639 1 0.118215 0.445596 0.588243
1497 1 0.238472 0.472098 0.581027
1708 1 0.355576 0.456565 0.575532
801 1 0.556921 0.475239 0.582084
2027 1 0.643198 0.465905 0.597557
1079 1 0.733677 0.476315 0.571015
412 1 0.818388 0.468813 0.585123
763 1 0.900002 0.489928 0.599426
1920 1 0.970073 0.467243 0.565372
90 1 0.142255 0.0273752 0.626128
1456 1 0.230362 0.04405 0.657816
1232 1 0.318837 0.0110182 0.629122
2022 1 0.434142 0.00181581 0.658905
512 1 0.584041 0.0289745 0.614945
1459 1 0.820519 0.00594274 0.634771
1166 1 0.891871 0.0340382 0.657717
1546 1 0.97277 0.0487596 0.624285
479 1 0.179095 0.0988445 0.648337
644 1 0.318069 0.0974417 0.600895
91 1 0.410333 0.0844678 0.605184
1502 1 0.47089 0.0712139 0.659097
1435 1 0.538035 0.0965343 0.61153
1345 1 0.754982 0.0586833 0.636191
761 1 0.853387 0.102215 0.604716
542 1 0.00822389 0.123681 0.651024
1256 1 0.0847903 0.115208 0.622472
916 1 0.222767 0.163593 0.644159
1869 1 0.472492 0.140595 0.616482
529 1 0.605034 0.12486 0.658195
1829 1 0.777914 0.158398 0.663774
394 1 0.859043 0.159738 0.661809
850 1 0.927741 0.118182 0.638233
62 1 0.0519556 0.195589 0.630662
1269 1 0.128828 0.176695 0.640126
1992 1 0.305242 0.174725 0.620293
271 1 0.417178 0.209927 0.650999
1382 1 0.499419 0.217291 0.660334
210 1 0.570719 0.186154 0.606486
1104 1 0.710105 0.195335 0.650814
49 1 0.916088 0.209138 0.654108
1792 1 0.973799 0.19202 0.605863
1642 1 0.0878603 0.266102 0.636558
1728 1 0.18096 0.244648 0.614207
1603 1 0.260923 0.236429 0.660437
442 1 0.345202 0.236807 0.653501
229 1 0.548994 0.263669 0.613981
1779 1 0.611269 0.238245 0.654334
1736 1 0.786511 0.222969 0.623022
935 1 0.86111 0.26429 0.626297
69 1 0.00777182 0.293446 0.633825
1906 1 0.376437 0.307192 0.631366
626 1 0.590788 0.318882 0.646136
854 1 0.660548 0.329964 0.608782
1917 1 0.730987 0.281014 0.613944
826 1 0.802988 0.320053 0.623956
1067 1 0.0745384 0.356996 0.626314
2013 1 0.22092 0.348823 0.65755
2020 1 0.349076 0.380397 0.609604
1687 1 0.432613 0.371406 0.609961
24 1 0.519522 0.355568 0.625912
1491 1 0.600771 0.383283 0.60003
654 1 0.745374 0.369951 0.636665
1572 1 0.923824 0.375529 0.656129
1370 1 0.979299 0.361829 0.60172
812 1 0.0487993 0.429389 0.623331
1878 1 0.147436 0.410679 0.649382
323 1 0.229376 0.429903 0.650914
1543 1 0.381801 0.443932 0.646698
1212 1 0.461634 0.433559 0.644512
385 1 0.578329 0.429794 0.665147
1935 1 0.816371 0.443434 0.665884
1378 1 0.843374 0.392643 0.606333
8 1 0.100266 0.496145 0.65616
533 1 0.170328 0.499606 0.619601
1384 1 0.299849 0.471975 0.633114
296 1 0.536472 0.494257 0.655675
1449 1 0.740745 0.448795 0.64494
1474 1 0.973572 0.457027 0.645661
807 1 0.165621 0.0378455 0.70203
2007 1 0.309394 0.0394784 0.707383
164 1 0.374569 0.0545969 0.66699
828 1 0.436767 0.0375866 0.724761
1716 1 0.647476 0.0397211 0.670689
1775 1 0.716233 0.000764572 0.684127
459 1 0.786369 0.0085449 0.725276
936 1 0.920018 0.00308553 0.724767
476 1 0.0548163 0.0593357 0.680421
253 1 0.23135 0.092348 0.728794
1786 1 0.283516 0.103205 0.669074
89 1 0.390854 0.101922 0.731243
819 1 0.55478 0.068567 0.684279
12 1 0.678849 0.109752 0.668266
938 1 0.747613 0.0792277 0.714042
1828 1 0.819078 0.0779228 0.678772
1553 1 0.892606 0.104853 0.711009
669 1 0.981544 0.0616125 0.712363
326 1 0.0367021 0.133595 0.718227
1608 1 0.120226 0.11539 0.698971
333 1 0.367925 0.151233 0.675587
221 1 0.451091 0.138111 0.691776
1360 1 0.530034 0.147658 0.674491
1111 1 0.71079 0.155833 0.719926
1038 1 0.961092 0.156687 0.719996
341 1 0.0892235 0.20354 0.70153
356 1 0.1675 0.207865 0.700292
1454 1 0.295512 0.180171 0.701355
798 1 0.391073 0.215436 0.724514
1507 1 0.551736 0.214731 0.722474
1541 1 0.642086 0.183711 0.696499
1688 1 0.889859 0.192554 0.732291
1347 1 0.00113699 0.224324 0.687457
853 1 0.306508 0.253838 0.723292
1277 1 0.73893 0.229007 0.715868
1293 1 0.811139 0.256431 0.696903
1738 1 0.0475973 0.32503 0.705625
1791 1 0.174608 0.284119 0.679273
1114 1 0.240603 0.312902 0.73189
1901 1 0.306244 0.314427 0.669346
1455 1 0.392476 0.298374 0.729873
1567 1 0.452178 0.279503 0.674803
1569 1 0.529936 0.279207 0.69101
1176 1 0.594776 0.295642 0.73246
673 1 0.674381 0.283463 0.672921
264 1 0.750476 0.308445 0.703893
859 1 0.924902 0.281827 0.680485
1937 1 0.974167 0.321881 0.730034
506 1 0.128131 0.346688 0.689692
1284 1 0.385713 0.371623 0.686238
302 1 0.463706 0.367251 0.683264
1861 1 0.544963 0.357377 0.707936
1350 1 0.617576 0.384152 0.720371
1721 1 0.697391 0.368846 0.700192
1304 1 0.844152 0.335822 0.690746
1415 1 0.00189674 0.389905 0.67976
1153 1 0.077963 0.409827 0.700758
1409 1 0.18254 0.390729 0.7239
934 1 0.296025 0.395831 0.684368
207 1 0.427345 0.435149 0.718322
1222 1 0.511759 0.433463 0.703969
878 1 0.659687 0.436055 0.671713
1561 1 0.767039 0.401575 0.707801
984 1 0.018445 0.479028 0.710063
784 1 0.141803 0.46031 0.713904
691 1 0.233311 0.450091 0.728921
98 1 0.308354 0.472989 0.710948
364 1 0.724683 0.481876 0.71781
1684 1 0.894143 0.448433 0.680511
720 1 0.0670467 0.0308707 0.756078
68 1 0.255196 0.0255466 0.77061
2038 1 0.352614 0.0529932 0.78652
1065 1 0.513116 0.0253975 0.781161
1547 1 0.581597 0.016125 0.745201
975 1 0.716093 0.000795576 0.767498
554 1 0.853926 0.0143893 0.773146
242 1 0.990363 0.00426285 0.771777
155 1 0.00186293 0.106399 0.782183
1597 1 0.0874552 0.10938 0.779988
1521 1 0.162557 0.07804 0.771165
1528 1 0.499141 0.0863472 0.736718
1880 1 0.65931 0.0664051 0.747548
912 1 0.832168 0.0908175 0.759274
444 1 0.924616 0.0632981 0.774201
1961 1 0.166104 0.158506 0.77363
1825 1 0.256926 0.158234 0.77038
703 1 0.314433 0.11229 0.741852
151 1 0.446285 0.149434 0.783743
1291 1 0.528096 0.1532 0.762146
1513 1 0.593389 0.113931 0.740234
596 1 0.665742 0.140667 0.781529
990 1 0.757585 0.129784 0.774987
39 1 0.0609989 0.187358 0.780977
399 1 0.358471 0.173745 0.78078
345 1 0.607213 0.20819 0.776312
780 1 0.718997 0.201819 0.788122
1295 1 0.812331 0.181464 0.74343
1135 1 0.0388475 0.258246 0.745222
1656 1 0.127842 0.263978 0.741441
1035 1 0.233373 0.234695 0.735284
719 1 0.343143 0.261952 0.789399
1859 1 0.430672 0.253108 0.793476
821 1 0.476092 0.228651 0.736935
289 1 0.546993 0.266747 0.788871
2 1 0.664567 0.246764 0.741779
1294 1 0.800636 0.255917 0.774701
1045 1 0.870026 0.265832 0.743428
256 1 0.966522 0.226016 0.756159
1623 1 0.0247751 0.325656 0.789823
556 1 0.166645 0.323081 0.773976
1271 1 0.318347 0.331651 0.756912
555 1 0.481178 0.309952 0.747656
537 1 0.660474 0.326566 0.763086
1156 1 0.729241 0.279865 0.785325
138 1 0.931287 0.287038 0.789147
450 1 0.0972209 0.359743 0.776573
82 1 0.264127 0.388152 0.770979
1041 1 0.415676 0.369587 0.759097
1930 1 0.548144 0.345082 0.786342
212 1 0.732649 0.36642 0.770831
799 1 0.804755 0.342124 0.757854
1003 1 0.878541 0.386916 0.742737
1806 1 0.951215 0.374748 0.795451
218 1 0.0132623 0.399708 0.755921
557 1 0.0848321 0.432873 0.799373
192 1 0.161816 0.417092 0.799194
1762 1 0.340523 0.406991 0.749089
1629 1 0.488183 0.396049 0.766761
841 1 0.566025 0.419889 0.762262
1223 1 0.672269 0.441174 0.785701
371 1 0.820631 0.442502 0.751405
868 1 0.17563 0.49364 0.780261
329 1 0.383858 0.472808 0.771827
1725 1 0.486889 0.481785 0.778345
152 1 0.610995 0.498433 0.76882
425 1 0.874263 0.497909 0.736997
1278 1 0.945735 0.44589 0.739377
38 1 0.0414659 0.0140416 0.830633
1403 1 0.11258 0.0425747 0.82941
851 1 0.413861 0.00666087 0.803011
80 1 0.475176 0.0235776 0.858043
241 1 0.571087 0.0116244 0.864049
496 1 0.654652 0.0209647 0.817232
1418 1 0.778129 0.0349799 0.807976
612 1 0.974602 0.0550423 0.835621
1075 1 0.0396239 0.098179 0.853399
2015 1 0.203048 0.0565828 0.830328
997 1 0.28064 0.0905735 0.808186
464 1 0.415456 0.0820089 0.82319
317 1 0.521743 0.100084 0.823984
1641 1 0.591939 0.0662591 0.802953
88 1 0.7165 0.0889829 0.828326
1392 1 0.812573 0.110373 0.82871
1912 1 0.13492 0.118459 0.84312
1180 1 0.202535 0.164606 0.841702
578 1 0.278242 0.159907 0.854094
1707 1 0.348875 0.117581 0.834506
1013 1 0.59398 0.142157 0.823675
1082 1 0.662472 0.134464 0.861877
263 1 0.751059 0.159328 0.846881
201 1 0.902643 0.13429 0.814369
81 1 0.0347535 0.182084 0.862453
109 1 0.109783 0.213479 0.833976
122 1 0.334944 0.216581 0.853744
294 1 0.419328 0.193665 0.840739
1388 1 0.499417 0.192505 0.823083
376 1 0.672187 0.2137 0.862606
1260 1 0.816285 0.213342 0.838641
678 1 0.89202 0.217111 0.807411
1066 1 0.979821 0.175891 0.810911
304 1 0.0213508 0.253581 0.819833
1227 1 0.18598 0.23568 0.815153
1285 1 0.274206 0.230219 0.80063
945 1 0.485985 0.277343 0.848665
431 1 0.575949 0.228232 0.847905
245 1 0.641759 0.270195 0.821073
609 1 0.746206 0.23724 0.866029
1580 1 0.110483 0.298712 0.822002
1971 1 0.173601 0.311905 0.865231
1638 1 0.231829 0.302731 0.806347
449 1 0.383273 0.3109 0.837445
1755 1 0.572884 0.31372 0.859723
870 1 0.708763 0.324781 0.845421
1414 1 0.808814 0.292142 0.845398
1979 1 0.979325 0.312063 0.855978
244 1 0.112849 0.377378 0.853453
714 1 0.212274 0.377391 0.844296
1771 1 0.301873 0.348198 0.828729
43 1 0.460293 0.354566 0.833179
528 1 0.613446 0.379253 0.817174
1127 1 0.775228 0.371085 0.845627
890 1 0.861182 0.350824 0.829598
71 1 0.0251292 0.391163 0.838077
1200 1 0.365441 0.396759 0.827127
508 1 0.451686 0.438178 0.847432
783 1 0.52629 0.407891 0.833686
762 1 0.683991 0.404582 0.851166
613 1 0.841272 0.415854 0.866598
571 1 0.133769 0.494101 0.850646