LAMMPS (15 Sep 2022)
OMP_NUM_THREADS environment is not set. Defaulting to 1 thread. (src/comm.cpp:98)
  using 1 OpenMP thread(s) per MPI task
Lattice spacing in x,y,z = 1.5377619 1.5377619 1.5377619
Created orthogonal box = (0 0 0) to (12.302095 12.302095 12.302095)
  1 by 2 by 5 MPI processor grid
Created 2048 atoms
  using lattice units in orthogonal box = (0 0 0) to (12.302095 12.302095 12.302095)
  create_atoms CPU = 0.000 seconds
Generated 0 of 0 mixed pair_coeff terms from geometric mixing rule
Neighbor list info ...
  update: every = 1 steps, delay = 0 steps, check = yes
  max neighbors/atom: 2000, page size: 100000
  master list distance cutoff = 1.3
  ghost atom cutoff = 1.3
  binsize = 0.65, bins = 19 19 19
  1 neighbor lists, perpetual/occasional/extra = 1 0 0
  (1) pair lj/cut, perpetual
      attributes: half, newton on
      pair build: half/bin/atomonly/newton
      stencil: half/bin/3d
      bin: standard
Setting up Verlet run ...
  Unit style    : lj
  Current step  : 0
  Time step     : 0.01
Per MPI rank memory allocation (min/avg/max) = 3.081 | 3.088 | 3.09 Mbytes
   Step          Temp          E_pair         E_mol          TotEng         Press     
         0   3              0              0              4.4978027      3.2983887    
       500   3.0838313      2.5513948      0              7.1748831      37.09494     
      1000   3.0203467      2.421146       0              6.9494538      35.777342    
      1500   2.9606365      2.4242765      0              6.8630629      35.707996    
      2000   2.9927932      2.3781738      0              6.8651716      35.419279    
      2500   2.9318691      2.5199533      0              6.9156097      36.479023    
      3000   2.9997329      2.4498758      0              6.9472782      35.99077     
      3500   2.9228735      2.4723752      0              6.8545447      36.295773    
      4000   3.0399222      2.4200456      0              6.9777024      35.45452     
      4500   2.9440486      2.4397284      0              6.8536451      35.770226    
      5000   3.0127392      2.4781233      0              6.9950256      36.502029    
      5500   2.9744251      2.4180988      0              6.8775578      35.651538    
      6000   2.9335689      2.5846828      0              6.9828875      37.065538    
      6500   2.9207273      2.3855311      0              6.7644829      35.172054    
      7000   3.0107136      2.4391273      0              6.9529926      35.771033    
      7500   2.9716086      2.3512886      0              6.806525       35.266433    
      8000   3.0259724      2.4193768      0              6.9561191      35.474106    
      8500   2.9508687      2.4776487      0              6.9017905      36.103938    
      9000   2.9249135      2.5343928      0              6.9196208      36.583071    
      9500   3.0055492      2.4373064      0              6.9434288      36.038224    
     10000   3.1249284      2.4098389      0              7.0949427      35.509931    
     10500   3.0479324      2.4804305      0              7.0500967      36.012813    
     11000   3.0376502      2.4742505      0              7.028501       36.18519     
     11500   3.0981201      2.5404179      0              7.1853289      36.823797    
     12000   2.9495138      2.4601848      0              6.8822951      36.04614     
     12500   3.0585892      2.5592031      0              7.1448467      37.178086    
     13000   2.9801341      2.4603888      0              6.9284071      35.981432    
     13500   3.1393467      2.5509682      0              7.2576888      37.125237    
     14000   3.0146161      2.4022221      0              6.9219382      35.671943    
     14500   3.0116057      2.6562551      0              7.1714579      37.677924    
     15000   3.0030773      2.4740457      0              6.9764621      36.104392    
     15500   3.1326839      2.604782       0              7.3015134      37.505935    
     16000   2.9835076      2.4461596      0              6.9192358      35.83101     
     16500   3.132844       2.5338354      0              7.2308068      37.002979    
     17000   2.9855569      2.4182253      0              6.894374       35.735568    
     17500   3.0063879      2.429591       0              6.9369709      35.70891     
     18000   3.0682751      2.44007        0              7.0402353      36.169353    
     18500   2.9381381      2.4228591      0              6.8279143      35.783596    
     19000   3.0013111      2.4758532      0              6.9756216      36.019773    
     19500   3.1181841      2.5529099      0              7.2279022      36.962052    
     20000   2.9992968      2.4177289      0              6.9144774      35.794444    
     20500   3.0638984      2.3405338      0              6.9341373      35.200687    
     21000   3.0292037      2.4814942      0              7.0230811      36.237534    
     21500   3.0989463      2.4257511      0              7.0719008      35.679806    
     22000   2.9880767      2.4537769      0              6.9337035      36.05437     
     22500   3.0955086      2.4440451      0              7.0850409      36.356038    
     23000   2.9680191      2.5090599      0              6.9589148      36.443389    
     23500   3.0681593      2.527142       0              7.1271338      36.718086    
     24000   3.0285938      2.4139686      0              6.954641       35.796694    
     24500   3.114567       2.4634289      0              7.1329982      36.10343     
     25000   2.9396463      2.5057647      0              6.913081       36.499846    
     25500   2.9800333      2.4492193      0              6.9170867      35.912032    
     26000   2.9760948      2.4943706      0              6.956333       36.433486    
     26500   2.9869722      2.3830032      0              6.8612738      35.634106    
     27000   3.0326392      2.4544959      0              7.0012335      35.964697    
     27500   3.0520648      2.5262382      0              7.1021         36.594002    
     28000   3.028953       2.3497655      0              6.8909765      35.102763    
     28500   2.9330629      2.533994       0              6.9314401      36.370013    
     29000   3.0054905      2.4335893      0              6.9396238      35.891579    
     29500   3.0377525      2.4477366      0              7.0021404      35.899506    
     30000   2.9762002      2.3899945      0              6.8521149      35.209365    
     30500   3.0077143      2.4404694      0              6.9498379      35.770987    
     31000   2.942233       2.4643409      0              6.8755355      36.071949    
     31500   2.9411644      2.5068303      0              6.9164227      36.529752    
     32000   3.0383126      2.4654578      0              7.0207014      35.947057    
     32500   2.9703763      2.4741915      0              6.9275803      36.425725    
     33000   3.0279056      2.606646       0              7.1462867      37.450018    
     33500   2.94917        2.5170072      0              6.9386021      36.382985    
     34000   2.9577584      2.4663137      0              6.9007849      35.874925    
     34500   3.001837       2.4509381      0              6.9514949      36.059259    
     35000   3.0218244      2.43193        0              6.9624533      35.802697    
     35500   2.9419156      2.5395089      0              6.9502277      36.756589    
     36000   3.0713688      2.4779591      0              7.0827628      36.245001    
     36500   2.9899951      2.485081       0              6.9678837      36.282903    
     37000   3.029401       2.4922264      0              7.0341091      36.24695     
     37500   2.9560598      2.3789841      0              6.8109086      35.127318    
     38000   3.0081175      2.473602       0              6.9835751      36.020493    
     38500   3.0289596      2.4738237      0              7.0150446      36.260891    
     39000   3.0283914      2.4468967      0              6.9872657      35.99789     
     39500   3.0364334      2.4234203      0              6.9758464      35.594833    
     40000   2.9939541      2.4653469      0              6.9540853      36.02915     
     40500   2.9814868      2.4499283      0              6.9199748      35.748726    
     41000   2.9889455      2.4636914      0              6.9449205      36.083386    
     41500   3.094828       2.5171527      0              7.157128       36.793718    
     42000   2.9749495      2.5308151      0              6.9910605      36.728769    
     42500   3.0437737      2.6911496      0              7.2545809      38.482105    
     43000   2.9782725      2.5103703      0              6.9755976      36.495267    
     43500   3.0209828      2.596238       0              7.1254995      37.235377    
     44000   2.9746061      2.4377008      0              6.8974313      35.946749    
     44500   3.0159304      2.5114014      0              7.0330881      36.60169     
     45000   2.8628644      2.4815504      0              6.7737502      36.088808    
     45500   3.0796766      2.4069572      0              7.0242165      35.668274    
     46000   2.9247941      2.416794       0              6.801843       35.492876    
     46500   3.0044664      2.4914753      0              6.9959744      36.459003    
     47000   2.9549637      2.3342701      0              6.7645514      34.927824    
     47500   3.0785412      2.4235139      0              7.0390709      35.716496    
     48000   2.9408128      2.3662603      0              6.7753255      35.367489    
     48500   3.0082882      2.4647883      0              6.9750172      36.248158    
     49000   2.9644101      2.4142206      0              6.8586645      35.536037    
     49500   2.9969777      2.4698818      0              6.9631533      36.309604    
     50000   3.0503999      2.4577824      0              7.0311481      35.79795     
Loop time of 4.25282 on 10 procs for 50000 steps with 2048 atoms

Performance: 10157962.685 tau/day, 11756.901 timesteps/s, 24.078 Matom-step/s
99.5% CPU use with 10 MPI tasks x 1 OpenMP threads

MPI task timing breakdown:
Section |  min time  |  avg time  |  max time  |%varavg| %total
---------------------------------------------------------------
Pair    | 0.55031    | 0.57492    | 0.59462    |   2.0 | 13.52
Neigh   | 2.2285     | 2.2499     | 2.2661     |   0.8 | 52.90
Comm    | 0.97316    | 1.012      | 1.0557     |   2.6 | 23.80
Output  | 0.0013472  | 0.0017737  | 0.0054386  |   2.9 |  0.04
Modify  | 0.24712    | 0.25734    | 0.26986    |   1.7 |  6.05
Other   |            | 0.1569     |            |       |  3.69

Nlocal:          204.8 ave         213 max         199 min
Histogram: 1 1 3 0 2 1 0 1 0 1
Nghost:          521.6 ave         532 max         511 min
Histogram: 2 0 2 1 0 1 0 1 1 2
Neighs:         1091.4 ave        1140 max        1058 min
Histogram: 2 2 2 0 0 1 1 0 0 2

Total # of neighbors = 10914
Ave neighs/atom = 5.3291016
Neighbor list builds = 20190
Dangerous builds = 1
Generated 0 of 0 mixed pair_coeff terms from geometric mixing rule
Setting up Verlet run ...
  Unit style    : lj
  Current step  : 50000
  Time step     : 0.01
Per MPI rank memory allocation (min/avg/max) = 3.139 | 3.141 | 3.143 Mbytes
   Step          Temp          E_pair         E_mol          TotEng         Press     
     50000   3.0503999      2.4577824      0              7.0311481      35.79795     
     50500   3.0347929      2.4673774      0              7.0173439      36.113382    
     51000   2.92361        2.4064983      0              6.7897719      35.740364    
     51500   2.9600241      2.3574189      0              6.795287       35.45454     
     52000   2.9521031      2.4353248      0              6.8613173      35.89921     
     52500   2.9747281      2.5190146      0              6.9789279      36.641972    
     53000   2.830688       2.488364       0              6.7323227      35.999077    
     53500   2.9144628      2.3438371      0              6.7133968      35.002321    
     54000   2.844378       2.4026782      0              6.667162       35.257982    
     54500   2.8296603      2.438461       0              6.6808788      35.523981    
     55000   2.8536343      2.3084711      0              6.5868326      34.372676    
     55500   2.8978592      2.279327       0              6.6239934      34.184992    
     56000   2.9220889      2.4363484      0              6.8173415      35.772013    
     56500   2.7966932      2.2784204      0              6.4714118      34.298189    
     57000   2.7791092      2.2963628      0              6.4629911      34.285405    
     57500   2.7955075      2.2573997      0              6.4486135      34.00633     
     58000   2.8819383      2.2904185      0              6.6112152      34.353305    
     58500   2.7073991      2.2039521      0              6.2630678      33.211699    
     59000   2.7216991      2.3199962      0              6.4005515      34.578146    
     59500   2.6399112      2.1158234      0              6.0737567      32.303446    
     60000   2.746561       2.1593118      0              6.2771417      33.020336    
     60500   2.7119039      2.1311639      0              6.1970335      32.538947    
     61000   2.6928811      2.2134981      0              6.2508474      33.427991    
     61500   2.6568965      2.1852537      0              6.1686524      33.185549    
     62000   2.7418593      2.2112178      0              6.3219986      33.57403     
     62500   2.6425734      2.1162223      0              6.0781469      32.347728    
     63000   2.6877821      2.134393       0              6.1640976      32.655853    
     63500   2.5659661      2.0353502      0              5.88242        31.588321    
     64000   2.5659606      2.134584       0              5.9816456      32.546232    
     64500   2.5832575      2.0549061      0              5.9279003      31.90017     
     65000   2.5380101      2.1658645      0              5.9710209      32.68245     
     65500   2.5138715      2.1544569      0              5.923423       32.428914    
     66000   2.535884       2.1294947      0              5.9314633      32.54037     
     66500   2.4349818      2.0237558      0              5.674445       31.167475    
     67000   2.5378548      2.0339807      0              5.8389042      31.493784    
     67500   2.4500375      1.9734166      0              5.6466784      30.578857    
     68000   2.4369407      2.0834242      0              5.7370504      31.83145     
     68500   2.5228562      2.0561458      0              5.8385824      31.518607    
     69000   2.3808427      2.0911909      0              5.6607112      31.863439    
     69500   2.4361917      1.9358087      0              5.588312       30.227276    
     70000   2.4491163      1.8424785      0              5.5143591      29.355703    
     70500   2.4195587      1.9086373      0              5.5362033      30.359628    
     71000   2.4593765      1.9758606      0              5.663124       30.906942    
     71500   2.3985227      2.0017641      0              5.5977915      30.96983     
     72000   2.4338083      1.9844205      0              5.6333504      31.019164    
     72500   2.3418806      2.0479212      0              5.5590269      31.68435     
     73000   2.3950826      1.8434642      0              5.4343339      29.57928     
     73500   2.4164736      1.9125235      0              5.535464       29.935045    
     74000   2.2491979      1.8918827      0              5.2640323      29.920273    
     74500   2.2349987      1.8396466      0              5.1905077      29.258407    
     75000   2.2209777      1.8128875      0              5.1427273      28.963334    
     75500   2.2374277      1.828113       0              5.1826159      29.190293    
     76000   2.2613882      1.7803493      0              5.1707752      28.813489    
     76500   2.2102006      1.7725579      0              5.0862399      28.393834    
     77000   2.223985       1.7688976      0              5.1032461      28.488745    
     77500   2.2647802      1.7385049      0              5.1340164      28.370965    
     78000   2.2050679      1.7580377      0              5.0640245      28.351038    
     78500   2.2201951      1.7902737      0              5.1189402      28.731344    
     79000   2.1385384      1.7319247      0              4.9381661      27.693394    
     79500   2.1379955      1.6822968      0              4.8877242      27.646552    
     80000   2.1273675      1.6932278      0              4.8827209      27.760063    
     80500   2.1549231      1.7370367      0              4.9678431      28.13393     
     81000   2.1351879      1.6555528      0              4.8567709      27.094344    
     81500   2.1853142      1.6459029      0              4.9222736      27.205995    
     82000   2.0878832      1.7751462      0              4.9054418      28.325788    
     82500   2.0119822      1.6708466      0              4.6873462      27.360056    
     83000   2.0837867      1.5946109      0              4.7187648      26.684803    
     83500   1.9868328      1.5794259      0              4.5582199      26.241998    
     84000   2.0212298      1.5871878      0              4.6175522      26.423052    
     84500   2.0319121      1.5604605      0              4.6068405      26.165199    
     85000   2.0272128      1.5470495      0              4.5863839      25.788002    
     85500   1.9738237      1.6081505      0              4.5674404      26.467713    
     86000   1.9772646      1.5314745      0              4.4959231      25.883225    
     86500   1.9789715      1.5066307      0              4.4736385      25.340508    
     87000   1.9328284      1.6008184      0              4.4986454      26.447567    
     87500   1.9528009      1.5357944      0              4.4635655      25.921862    
     88000   1.8784852      1.5620258      0              4.3783778      26.05358     
     88500   1.935486       1.4716128      0              4.3734243      25.012918    
     89000   1.8967257      1.5112881      0              4.3549873      25.281993    
     89500   1.8293414      1.4587457      0              4.201418       24.982739    
     90000   1.8438912      1.4680747      0              4.232561       25.13292     
     90500   1.8197978      1.4409385      0              4.1693024      24.749525    
     91000   1.8189736      1.383864       0              4.1109921      23.845535    
     91500   1.7985103      1.3561437      0              4.0525919      23.688965    
     92000   1.7957215      1.4326881      0              4.124955       24.79937     
     92500   1.8223498      1.4357167      0              4.1679067      24.638678    
     93000   1.7557951      1.4443816      0              4.0767883      24.564077    
     93500   1.7677566      1.3669022      0              4.0172424      23.776171    
     94000   1.7100687      1.3384033      0              3.9022539      23.51762     
     94500   1.7024275      1.2977218      0              3.8501161      22.935509    
     95000   1.669244       1.364771       0              3.8674144      23.578628    
     95500   1.7079857      1.3443562      0              3.9050837      23.485239    
     96000   1.712715       1.3811962      0              3.9490142      23.910228    
     96500   1.6669083      1.2913752      0              3.7905167      22.903998    
     97000   1.6464746      1.2930499      0              3.7615558      22.739148    
     97500   1.5966988      1.2626143      0              3.6564931      22.508333    
     98000   1.6094839      1.225002       0              3.638049       22.138664    
     98500   1.592237       1.1757642      0              3.5629535      21.354571    
     99000   1.56786        1.2180455      0              3.5686871      22.048634    
     99500   1.5294665      1.2377132      0              3.5307928      22.180466    
    100000   1.5201953      1.1657225      0              3.444902       21.154515    
    100500   1.5159301      1.1639343      0              3.4367191      21.338243    
    101000   1.5318342      1.1340567      0              3.430686       21.002323    
    101500   1.5056013      1.1453653      0              3.4026645      20.907462    
    102000   1.4793245      1.1371386      0              3.3550419      20.930793    
    102500   1.4894576      1.0764705      0              3.309566       20.071335    
    103000   1.4452916      1.1319385      0              3.2988174      20.498338    
    103500   1.4532481      1.0942011      0              3.2730088      20.490182    
    104000   1.4530129      1.0774808      0              3.255936       20.295466    
    104500   1.420768       1.0983346      0              3.228446       20.494718    
    105000   1.3952554      1.0422601      0              3.1341214      19.843684    
    105500   1.4383572      1.0306124      0              3.1870947      19.610917    
    106000   1.3683702      1.0477597      0              3.0993127      19.46615     
    106500   1.3791605      1.039523       0              3.1072536      19.546196    
    107000   1.3377385      0.95504104     0              2.9606691      18.546588    
    107500   1.3235206      1.0219586      0              3.0062701      19.363134    
    108000   1.3223147      0.99378953     0              2.9762931      19.255963    
    108500   1.3218729      0.95061849     0              2.9324597      18.452913    
    109000   1.3299579      0.96060461     0              2.9545674      18.643916    
    109500   1.2906544      0.90661743     0              2.8416538      18.012175    
    110000   1.2404259      0.93498379     0              2.7947141      18.141987    
    110500   1.2243825      0.92469771     0              2.7603747      18.294724    
    111000   1.2217802      0.90930301     0              2.7410784      17.980773    
    111500   1.2195743      0.89836108     0              2.7268293      17.791507    
    112000   1.2045717      0.88841961     0              2.6943949      17.610249    
    112500   1.2196114      0.94817225     0              2.7766961      18.40789     
    113000   1.1684965      0.89558553     0              2.6474745      17.574008    
    113500   1.1666316      0.85282954     0              2.6019224      17.143221    
    114000   1.160685       0.86957335     0              2.6097507      17.247872    
    114500   1.1232504      0.82902886     0              2.5130818      16.705543    
    115000   1.1440218      0.81257157     0              2.5277664      16.481303    
    115500   1.1097323      0.80282094     0              2.4666067      16.569542    
    116000   1.0739333      0.80531665     0              2.41543        16.476487    
    116500   1.0622709      0.76874418     0              2.3613724      15.913061    
    117000   1.0843484      0.76496069     0              2.390689       15.866669    
    117500   1.0395374      0.74749074     0              2.3060354      15.495615    
    118000   1.035969       0.76674714     0              2.3199419      15.898878    
    118500   1.0030585      0.72310526     0              2.2269584      15.22231     
    119000   1.0002029      0.73840746     0              2.2379792      15.439024    
    119500   0.95214715     0.69232416     0              2.1198475      14.736465    
    120000   0.96944038     0.66691315     0              2.1203637      14.587335    
    120500   0.9446507      0.68459293     0              2.1008771      14.699861    
    121000   0.93375302     0.64951072     0              2.0494563      14.315913    
    121500   0.92659371     0.66380316     0              2.0530151      14.353567    
    122000   0.91241443     0.68574735     0              2.0537007      14.752265    
    122500   0.89849901     0.62710341     0              1.9741938      13.943385    
    123000   0.88902399     0.65531943     0              1.9882043      14.226615    
    123500   0.8678152      0.57320258     0              1.8742898      12.965478    
    124000   0.8634547      0.5842018      0              1.8787514      13.208183    
    124500   0.84820414     0.57496932     0              1.8466543      13.040667    
    125000   0.82639629     0.57902802     0              1.8180172      13.227982    
    125500   0.80777842     0.55592019     0              1.7669962      12.790666    
    126000   0.78729793     0.55368124     0              1.7340515      12.681758    
    126500   0.77222481     0.52266503     0              1.6804366      12.149611    
    127000   0.75341926     0.51579621     0              1.6453733      12.12754     
    127500   0.74280797     0.52700348     0              1.6406714      12.314541    
    128000   0.73353237     0.48492328     0              1.5846846      11.786083    
    128500   0.73347346     0.47811894     0              1.5777919      11.563515    
    129000   0.70622161     0.50449233     0              1.5633075      11.852671    
    129500   0.70426279     0.45993174     0              1.5158101      11.286007    
    130000   0.67165425     0.47721232     0              1.4842018      11.543208    
    130500   0.66527299     0.47242288     0              1.4698451      11.466092    
    131000   0.67977845     0.40848236     0              1.4276522      10.373692    
    131500   0.6463526      0.42580927     0              1.3948648      10.810432    
    132000   0.63151859     0.38701349     0              1.3338288      10.009375    
    132500   0.62980648     0.40195062     0              1.3461991      10.331213    
    133000   0.59487268     0.36753285     0              1.2594062      9.7164388    
    133500   0.57685163     0.38381342     0              1.2486684      9.8528878    
    134000   0.53841086     0.37032589     0              1.1775478      9.6291622    
    134500   0.55026866     0.34911876     0              1.1741187      9.3052133    
    135000   0.54183329     0.35246245     0              1.1648155      9.3805195    
    135500   0.50636724     0.34113661     0              1.1003166      9.15729      
    136000   0.51720184     0.31324999     0              1.0886739      8.6868978    
    136500   0.48785707     0.30593306     0              1.0373613      8.5620201    
    137000   0.48505897     0.27981599     0              1.0070492      8.0751405    
    137500   0.47929561     0.28391258     0              1.0025049      8.093203     
    138000   0.43855923     0.26174849     0              0.91926613     7.6842193    
    138500   0.43990628     0.25538367     0              0.91492089     7.5711696    
    139000   0.41164861     0.23889994     0              0.85607135     7.2534985    
    139500   0.40236208     0.23695454     0              0.84020296     7.2228427    
    140000   0.38650325     0.22760956     0              0.80708134     6.9622889    
    140500   0.37588149     0.22223547     0              0.78578241     6.8735643    
    141000   0.36459855     0.20692743     0              0.75355822     6.5084289    
    141500   0.35141804     0.18812047     0              0.71499015     6.1221409    
    142000   0.3297485      0.17518596     0              0.66956719     5.925998     
    142500   0.32259191     0.17369448     0              0.65734606     5.8786147    
    143000   0.30325829     0.17223418     0              0.62689951     5.8094444    
    143500   0.29209377     0.15005765     0              0.58798436     5.2227325    
    144000   0.27759695     0.13925955     0              0.55545166     5.0113641    
    144500   0.25971161     0.1379474      0              0.52732459     4.9821707    
    145000   0.24903972     0.12430682     0              0.49768399     4.6112954    
    145500   0.23503309     0.1146729      0              0.46705039     4.4087664    
    146000   0.21182927     0.11576836     0              0.43335711     4.4168939    
    146500   0.20698076     0.094014656    0              0.4043342      3.8830263    
    147000   0.18722049     0.092430305    0              0.37312391     3.8565014    
    147500   0.17413205     0.081733867    0              0.34280441     3.5078617    
    148000   0.15949857     0.072167288    0              0.31129833     3.2126441    
    148500   0.14396208     0.065160986    0              0.28099866     2.9555016    
    149000   0.12832174     0.059353625    0              0.25174225     2.8206817    
    149500   0.1175144      0.045531414    0              0.22171695     2.3567861    
    150000   0.10066229     0.041776249    0              0.19269595     2.2350331    
Loop time of 6.73032 on 10 procs for 100000 steps with 2048 atoms

Performance: 12837437.168 tau/day, 14858.145 timesteps/s, 30.429 Matom-step/s
99.5% CPU use with 10 MPI tasks x 1 OpenMP threads

MPI task timing breakdown:
Section |  min time  |  avg time  |  max time  |%varavg| %total
---------------------------------------------------------------
Pair    | 1.0036     | 1.0462     | 1.0826     |   2.5 | 15.54
Neigh   | 3.0969     | 3.1275     | 3.1505     |   1.0 | 46.47
Comm    | 1.7002     | 1.7565     | 1.8234     |   3.2 | 26.10
Output  | 0.026602   | 0.026741   | 0.027685   |   0.2 |  0.40
Modify  | 0.4756     | 0.49301    | 0.51477    |   2.1 |  7.33
Other   |            | 0.2805     |            |       |  4.17

Nlocal:          204.8 ave         210 max         196 min
Histogram: 1 0 0 0 3 0 2 1 0 3
Nghost:          517.7 ave         533 max         495 min
Histogram: 1 0 0 1 0 3 2 1 1 1
Neighs:         1157.6 ave        1215 max        1090 min
Histogram: 1 1 1 1 0 2 0 0 2 2

Total # of neighbors = 11576
Ave neighs/atom = 5.6523438
Neighbor list builds = 28008
Dangerous builds = 0
Total wall time: 0:00:11
