ITEM: TIMESTEP
100000
ITEM: NUMBER OF ATOMS
2048
ITEM: BOX BOUNDS pp pp pp
0.0000000000000000e+00 1.1950412657485773e+01
0.0000000000000000e+00 1.1950412657485773e+01
0.0000000000000000e+00 1.1950412657485773e+01
ITEM: ATOMS id type xs ys zs
90 1 0.314508 0.677808 0.00447408
12 1 0.252799 0.0631098 0.0588786
11 1 0.312486 0.996506 0.0556215
15 1 0.444025 0.994411 0.0649448
1076 1 0.489867 0.442403 0.0779984
212 1 0.0025685 0.687805 0.1845
8 1 0.129104 0.0653307 0.0641529
1204 1 0.4853 0.434707 0.186318
20 1 -0.00155033 0.189119 0.061229
19 1 0.0608307 0.113744 0.050329
61 1 0.380256 0.379822 -0.00320412
23 1 0.19911 0.122201 0.0570563
1044 1 0.502975 0.174734 0.0637656
27 1 0.32039 0.116966 0.0537559
31 1 0.4447 0.117434 0.0600148
24 1 0.135646 0.179278 0.0561886
34 1 0.0660471 0.316069 0.00101828
180 1 0.00762 0.433866 0.1961
122 1 0.311024 0.936528 0.00359397
35 1 0.0657082 0.248365 0.0561705
177 1 0.00488447 0.372787 0.1264
219 1 0.314551 0.634669 0.199542
94 1 0.427454 0.697923 0.000339734
1057 1 0.494724 0.256263 0.00441013
151 1 0.185793 0.125233 0.172808
40 1 0.125585 0.327052 0.0519788
44 1 0.242798 0.31189 0.0606135
48 1 0.371636 0.302024 0.0623519
1108 1 0.495032 0.695104 0.0754269
51 1 0.0645914 0.382217 0.0590694
55 1 0.184474 0.385942 0.0630885
59 1 0.323433 0.375425 0.0548607
63 1 0.431106 0.36448 0.0658007
1089 1 0.495116 0.50912 0.00902262
56 1 0.122023 0.435776 0.0527459
82 1 0.0641319 0.684095 0.00901082
145 1 0.0116053 0.131511 0.121943
75 1 0.305089 0.494183 0.0652284
67 1 0.0520428 0.492343 0.0704885
106 1 0.304257 0.816105 0.00620561
71 1 0.187037 0.508061 0.0585766
79 1 0.426599 0.505617 0.0652508
72 1 0.115397 0.570714 0.0568559
223 1 0.431764 0.628293 0.188848
139 1 0.311071 0.995087 0.1875
80 1 0.36598 0.560351 0.0615296
159 1 0.437821 0.123664 0.174003
83 1 0.0579476 0.62219 0.0615081
78 1 0.437501 0.566831 0.00762208
95 1 0.437868 0.627494 0.0590312
163 1 0.0754751 0.253833 0.17667
88 1 0.13467 0.686385 0.071235
96 1 0.376864 0.685902 0.0648537
140 1 0.245634 0.0702146 0.194402
172 1 0.252332 0.309262 0.173981
57 1 0.251257 0.381963 0.00966395
111 1 0.432401 0.757136 0.070573
235 1 0.30881 0.764157 0.187708
200 1 0.115851 0.554034 0.184183
104 1 0.133774 0.818752 0.0665552
135 1 0.19262 0.00429085 0.186019
1185 1 0.497641 0.251945 0.126955
25 1 0.259609 0.1207 0.00157534
115 1 0.0718648 0.870904 0.0646937
144 1 0.370563 0.0612143 0.188277
1124 1 0.498062 0.808829 0.0713445
123 1 0.313564 0.876524 0.063881
184 1 0.12615 0.44327 0.188741
1105 1 0.496304 0.63409 -0.000456277
251 1 0.297629 0.87489 0.194098
128 1 0.380587 0.933595 0.0680991
127 1 0.430922 0.871861 0.0641926
255 1 0.429152 0.877384 0.191461
152 1 0.127168 0.183515 0.175282
3 1 0.0521032 0.994826 0.0660426
192 1 0.378365 0.434022 0.198547
7 1 0.183358 0.998858 0.0621665
124 1 0.255325 0.936962 0.0627606
100 1 0.000287105 0.810331 0.0668767
137 1 0.250734 0.00270771 0.131722
141 1 0.37724 0.993604 0.125443
121 1 0.254423 0.878884 0.00361046
130 1 0.0538244 0.0543875 0.131797
134 1 0.191713 0.0629102 0.117578
138 1 0.311712 0.0519365 0.115469
16 1 0.373337 0.0585483 0.062908
142 1 0.440464 0.0496717 0.124336
149 1 0.106124 0.11522 0.126279
153 1 0.255936 0.118664 0.119491
146 1 0.0710068 0.186947 0.111368
150 1 0.195742 0.179103 0.114482
28 1 0.25516 0.181363 0.0594491
32 1 0.380399 0.175185 0.0685775
93 1 0.375856 0.628892 0.0050335
39 1 0.198143 0.244369 0.0680004
43 1 0.323022 0.243037 0.040949
47 1 0.431571 0.245046 0.0657228
162 1 0.0600732 0.318373 0.117633
166 1 0.192128 0.316621 0.119595
170 1 0.315067 0.315281 0.11657
174 1 0.433913 0.306828 0.12114
181 1 0.132188 0.369068 0.121358
185 1 0.255738 0.373183 0.111988
189 1 0.3788 0.367232 0.125061
178 1 0.0632974 0.434913 0.133616
182 1 0.17994 0.436649 0.129599
186 1 0.327565 0.427054 0.130915
64 1 0.372023 0.438238 0.0642862
190 1 0.424426 0.432557 0.128337
60 1 0.241567 0.440481 0.0666091
110 1 0.437449 0.812056 0.0120613
98 1 0.0640898 0.814108 0.00510912
197 1 0.123803 0.505807 0.110571
205 1 0.366149 0.500698 0.120065
155 1 0.306366 0.122471 0.186837
194 1 0.0599637 0.554814 0.12531
198 1 0.184461 0.566385 0.132368
76 1 0.254956 0.557371 0.059313
202 1 0.313271 0.564985 0.131997
206 1 0.436281 0.575566 0.126674
213 1 0.115512 0.616143 0.126101
87 1 0.178424 0.620397 0.0669893
91 1 0.315725 0.627146 0.0723082
221 1 0.374038 0.632119 0.132592
216 1 0.129606 0.687241 0.183813
199 1 0.196721 0.493813 0.182313
210 1 0.0631579 0.695094 0.120565
214 1 0.197899 0.688484 0.135608
92 1 0.250968 0.684695 0.0627459
218 1 0.314591 0.690767 0.136294
222 1 0.4294 0.689641 0.127433
30 1 0.444563 0.185574 0.00734058
99 1 0.0733889 0.755462 0.0596276
229 1 0.132549 0.751735 0.127265
103 1 0.190997 0.744752 0.0668984
233 1 0.252103 0.758226 0.118282
107 1 0.320855 0.743978 0.0715994
237 1 0.378332 0.757972 0.132127
168 1 0.133308 0.316165 0.18317
226 1 0.0642614 0.809904 0.129778
230 1 0.190724 0.817826 0.128333
108 1 0.242327 0.817161 0.0606926
234 1 0.302939 0.819837 0.122393
112 1 0.372481 0.81704 0.0697144
238 1 0.434457 0.818494 0.128105
245 1 0.126177 0.864964 0.131366
119 1 0.175201 0.885946 0.0625108
249 1 0.247277 0.880891 0.130816
253 1 0.372399 0.87905 0.124898
242 1 0.0577385 0.931535 0.141009
120 1 0.110139 0.941578 0.0761112
246 1 0.188682 0.933159 0.121203
250 1 0.308485 0.945129 0.126095
254 1 0.435129 0.931214 0.129232
133 1 0.126729 0.00604888 0.122867
1252 1 0.495178 0.820049 0.183751
1188 1 0.499427 0.312966 0.187956
188 1 0.264599 0.442243 0.176515
187 1 0.316277 0.371111 0.181785
227 1 0.0673785 0.748622 0.189414
164 1 0.0061355 0.315072 0.192529
217 1 0.245361 0.624242 0.119667
195 1 0.0533468 0.50153 0.184101
113 1 0.00372227 0.864229 0.00205349
157 1 0.370054 0.111826 0.126543
69 1 0.118742 0.50183 0.00169758
231 1 0.193332 0.742184 0.197852
252 1 0.23913 0.938925 0.192115
154 1 0.319968 0.176434 0.124525
196 1 0.00671754 0.573042 0.183462
158 1 0.445895 0.182881 0.116525
156 1 0.240942 0.187312 0.187283
165 1 0.130859 0.263494 0.110832
232 1 0.123589 0.810081 0.194879
169 1 0.259757 0.246003 0.122199
173 1 0.374953 0.236976 0.127119
211 1 0.0667398 0.635869 0.186732
179 1 0.0621129 0.374604 0.190082
239 1 0.436637 0.754215 0.196228
68 1 -0.00124344 0.563032 0.0594095
161 1 0.00392924 0.239831 0.122839
1172 1 0.495896 0.190058 0.189116
236 1 0.242196 0.811032 0.186286
240 1 0.378164 0.81588 0.192599
171 1 0.317467 0.247985 0.183444
225 1 0.00853322 0.751842 0.128464
148 1 0.00614613 0.187658 0.195563
256 1 0.371183 0.933441 0.185431
77 1 0.372136 0.497106 -0.00071965
207 1 0.435329 0.497895 0.183158
131 1 0.0597703 0.996608 0.194976
1236 1 0.492916 0.679209 0.193577
201 1 0.252537 0.504288 0.127683
243 1 0.068214 0.869224 0.18589
160 1 0.374223 0.177278 0.181514
176 1 0.380707 0.311328 0.185024
208 1 0.369752 0.573605 0.194217
136 1 0.119155 0.0539794 0.189485
5 1 0.116779 0.00105323 0.0164961
204 1 0.257661 0.572175 0.189976
175 1 0.434534 0.24212 0.181795
203 1 0.319432 0.49963 0.185356
147 1 0.0673415 0.11881 0.192653
167 1 0.185638 0.25164 0.167367
1156 1 0.492523 0.0540074 0.187087
1092 1 0.496668 0.564911 0.0692623
248 1 0.131544 0.952163 0.184799
215 1 0.194896 0.629468 0.188274
1169 1 0.497835 0.121375 0.125479
247 1 0.186853 0.875106 0.186495
37 1 0.130294 0.254947 0.0116557
1249 1 0.494883 0.751756 0.129608
1073 1 0.490097 0.384761 0.0047387
105 1 0.266044 0.744041 0.00794663
224 1 0.364627 0.69567 0.198162
183 1 0.18962 0.378478 0.197409
102 1 0.19561 0.795525 0.00203061
58 1 0.304521 0.444658 0.00304301
62 1 0.431617 0.441854 0.00548819
13 1 0.381142 0.986039 0.00216907
983 1 0.259841 0.624048 0.00697794
126 1 0.43731 0.923003 0.0017782
46 1 0.432322 0.316365 0.00210542
261 1 0.11819 0.994862 0.250795
265 1 0.256267 0.998619 0.251408
258 1 0.0578343 0.0584712 0.251358
262 1 0.174137 0.0652556 0.244428
266 1 0.3099 0.0666426 0.245458
270 1 0.438113 0.0665029 0.249604
277 1 0.123568 0.132112 0.248084
281 1 0.253834 0.127494 0.249961
285 1 0.377772 0.127404 0.246531
274 1 0.0616153 0.185312 0.252647
278 1 0.180337 0.188246 0.24752
440 1 0.440832 0.815968 0.378787
282 1 0.308997 0.188521 0.25013
286 1 0.432402 0.189977 0.244705
220 1 0.260922 0.692475 0.201807
293 1 0.125718 0.255281 0.243158
297 1 0.252248 0.247375 0.23778
1332 1 0.49068 0.441881 0.312807
301 1 0.371565 0.251893 0.243921
1348 1 0.499923 0.5642 0.302256
290 1 0.0732986 0.313762 0.241337
294 1 0.189525 0.307144 0.244388
298 1 0.310526 0.306802 0.242937
302 1 0.430329 0.314848 0.253296
309 1 0.123188 0.377747 0.243204
313 1 0.260589 0.373483 0.243116
317 1 0.369496 0.377078 0.254992
306 1 0.0674337 0.446274 0.254615
310 1 0.19849 0.449217 0.249026
314 1 0.31129 0.438887 0.251278
318 1 0.439602 0.44892 0.252695
448 1 0.44209 0.93571 0.381313
333 1 0.366039 0.50191 0.258562
325 1 0.123131 0.510859 0.252736
329 1 0.262294 0.507128 0.246127
322 1 0.0651938 0.566396 0.255737
326 1 0.194579 0.562462 0.240427
330 1 0.312504 0.567513 0.250656
334 1 0.428237 0.556396 0.251654
341 1 0.126871 0.621325 0.246497
345 1 0.247795 0.627804 0.25996
349 1 0.375858 0.62146 0.263593
446 1 0.31539 0.94931 0.379884
338 1 0.0724645 0.680907 0.249743
342 1 0.179907 0.681909 0.255822
346 1 0.314747 0.684322 0.265703
350 1 0.423557 0.687388 0.253441
357 1 0.121178 0.74267 0.256985
361 1 0.260085 0.754175 0.25951
365 1 0.372376 0.751396 0.266006
354 1 0.0667314 0.806798 0.249053
358 1 0.186867 0.796862 0.25409
362 1 0.314033 0.812753 0.253411
366 1 0.441106 0.81063 0.248511
373 1 0.136743 0.864651 0.257432
377 1 0.237427 0.880302 0.253689
381 1 0.379084 0.866492 0.255771
1313 1 0.492754 0.248225 0.243682
370 1 0.0705676 0.926458 0.239425
374 1 0.183108 0.943188 0.256175
382 1 0.442459 0.914964 0.257018
378 1 0.309615 0.936557 0.245076
269 1 0.373165 0.011999 0.257147
263 1 0.185042 0.000193098 0.314005
271 1 0.442819 0.998694 0.315571
264 1 0.11262 0.0547304 0.306669
268 1 0.239894 0.0598416 0.306825
272 1 0.387269 0.0666103 0.313288
275 1 0.0675664 0.124472 0.312584
279 1 0.182057 0.122231 0.317847
283 1 0.313709 0.123229 0.303096
287 1 0.449591 0.12292 0.314235
143 1 0.433943 0.988809 0.210253
280 1 0.125718 0.180952 0.313424
284 1 0.236293 0.198117 0.314534
288 1 0.370789 0.193692 0.299826
291 1 0.0608945 0.244416 0.311747
295 1 0.17157 0.246389 0.318567
299 1 0.299161 0.251572 0.304002
303 1 0.436085 0.256791 0.302338
296 1 0.110673 0.3163 0.31088
300 1 0.247607 0.319066 0.305511
304 1 0.370413 0.312686 0.308462
1297 1 0.494877 0.127631 0.247583
307 1 0.0644258 0.379781 0.30109
311 1 0.181065 0.369262 0.315142
315 1 0.306298 0.377354 0.308893
319 1 0.429052 0.378384 0.31522
1465 1 0.498199 0.872329 0.368623
312 1 0.124525 0.439883 0.31686
320 1 0.364872 0.438346 0.312154
323 1 0.0676026 0.499512 0.321653
316 1 0.241557 0.426645 0.308301
327 1 0.183627 0.499792 0.309535
331 1 0.3094 0.501153 0.317855
336 1 0.363362 0.562542 0.320121
335 1 0.433385 0.502722 0.313121
328 1 0.119258 0.567912 0.32056
332 1 0.238968 0.559977 0.313995
339 1 0.0678634 0.630019 0.314848
343 1 0.182524 0.634539 0.316888
347 1 0.307049 0.620507 0.321275
351 1 0.437274 0.624371 0.31191
344 1 0.12328 0.69208 0.321866
348 1 0.250977 0.681063 0.318526
352 1 0.377784 0.687943 0.31765
355 1 0.0609217 0.748258 0.312923
359 1 0.178735 0.752541 0.318199
363 1 0.311673 0.741627 0.321587
367 1 0.437728 0.74865 0.312033
443 1 0.12063 0.88374 0.376294
360 1 0.121232 0.8079 0.308065
364 1 0.247131 0.821983 0.314044
368 1 0.360347 0.819654 0.318939
447 1 0.373976 0.883384 0.375926
371 1 0.0669861 0.871675 0.318314
375 1 0.186285 0.880089 0.321059
379 1 0.311495 0.882136 0.302712
383 1 0.431013 0.872113 0.319906
442 1 0.0618832 0.939656 0.385659
376 1 0.120926 0.943541 0.320643
380 1 0.245881 0.93762 0.309023
384 1 0.37392 0.947053 0.317028
259 1 0.0560247 -0.000576675 0.320311
267 1 0.311193 0.0164108 0.314116
1441 1 0.485308 0.504958 0.373113
387 1 0.125505 0.00307961 0.375205
389 1 0.24747 0.00578854 0.376625
391 1 0.381898 0.00368657 0.374189
386 1 0.0607479 0.0664083 0.37221
388 1 0.18238 0.0671647 0.375153
390 1 0.325591 0.0645403 0.374259
392 1 0.445451 0.0598715 0.367669
395 1 0.120278 0.124224 0.381193
397 1 0.255293 0.128247 0.362471
399 1 0.363598 0.141732 0.370436
1345 1 0.495438 0.504811 0.238049
394 1 0.0515419 0.193585 0.383147
396 1 0.185156 0.185982 0.377372
398 1 0.30076 0.196275 0.365869
400 1 0.425776 0.203203 0.364477
324 1 0.00299169 0.569326 0.31475
403 1 0.116379 0.250363 0.379027
405 1 0.236289 0.255467 0.375473
407 1 0.360023 0.251429 0.36319
402 1 0.0636448 0.31242 0.387174
404 1 0.18033 0.308389 0.375236
406 1 0.30613 0.305234 0.359216
408 1 0.421783 0.308256 0.370308
411 1 0.121282 0.374463 0.37264
413 1 0.253083 0.366433 0.378582
415 1 0.362615 0.37668 0.369317
410 1 0.0576064 0.434988 0.375225
412 1 0.181235 0.433348 0.374452
414 1 0.313056 0.444574 0.379467
444 1 0.182073 0.943558 0.370724
419 1 0.123525 0.503281 0.376577
416 1 0.420668 0.437142 0.381063
421 1 0.244107 0.494658 0.374053
423 1 0.37099 0.500015 0.376044
418 1 0.0611421 0.569245 0.375943
420 1 0.183374 0.566345 0.372752
422 1 0.296345 0.561462 0.375382
424 1 0.424801 0.561977 0.382235
427 1 0.12328 0.628321 0.382093
429 1 0.25055 0.630485 0.382649
431 1 0.38168 0.629065 0.375711
426 1 0.0702643 0.693732 0.382039
428 1 0.18527 0.690086 0.374423
430 1 0.31331 0.677952 0.376564
432 1 0.44536 0.683738 0.368964
353 1 0.00520899 0.743474 0.25177
435 1 0.121271 0.762307 0.37782
437 1 0.242426 0.743134 0.37306
439 1 0.371709 0.759653 0.376029
445 1 0.245808 0.888522 0.375138
434 1 0.063826 0.819378 0.390869
436 1 0.190359 0.821688 0.374058
438 1 0.297752 0.810739 0.375338
1329 1 0.497096 0.384635 0.254451
369 1 0.00629758 0.87754 0.263871
1433 1 0.485566 0.38909 0.372913
1316 1 0.498003 0.305762 0.317143
425 1 0.00111957 0.623365 0.380048
321 1 0.00740756 0.503279 0.263972
1380 1 0.500087 0.80536 0.314057
356 1 0.00808047 0.809447 0.31578
441 1 0.00274259 0.878741 0.378575
1457 1 0.499659 0.747801 0.373828
273 1 0.00605964 0.121623 0.248587
372 1 0.0116902 0.935875 0.318742
433 1 0.000279106 0.749232 0.385582
385 1 0.000936887 0.00262019 0.377097
1396 1 0.50009 0.931587 0.316272
289 1 0.00953719 0.261002 0.249287
1300 1 0.500804 0.190665 0.313913
308 1 0.00724678 0.434829 0.3117
1425 1 0.499639 0.248809 0.373493
260 1 0.00223656 0.0617702 0.315502
191 1 0.436655 0.376328 0.201248
453 1 0.309998 0.00597543 0.436332
455 1 0.440823 0.00183003 0.435957
580 1 0.0101923 0.560263 0.563585
452 1 0.115264 0.0621279 0.43256
454 1 0.251363 0.0604677 0.433746
456 1 0.382914 0.0712842 0.427997
608 1 0.375129 0.698018 0.556308
457 1 0.0549681 0.116125 0.431814
459 1 0.187808 0.113454 0.442662
461 1 0.308528 0.132482 0.425832
463 1 0.431314 0.142882 0.420927
564 1 0.00105637 0.442525 0.566658
460 1 0.122316 0.177782 0.44627
462 1 0.242954 0.182582 0.435339
464 1 0.366649 0.211291 0.429932
482 1 0.00354706 0.557735 0.434242
465 1 0.070118 0.245823 0.447439
467 1 0.181024 0.24314 0.441618
469 1 0.296767 0.250044 0.427197
471 1 0.438253 0.24202 0.434662
623 1 0.43364 0.757293 0.550898
468 1 0.12477 0.31287 0.441646
470 1 0.237574 0.310291 0.43923
472 1 0.35638 0.317231 0.424775
498 1 0.010015 0.809219 0.446991
473 1 0.0655688 0.376913 0.440463
475 1 0.186265 0.372434 0.430652
477 1 0.310603 0.379127 0.43148
479 1 0.429467 0.368362 0.430547
619 1 0.31517 0.75367 0.559056
476 1 0.117529 0.435828 0.433706
478 1 0.247796 0.429643 0.445395
480 1 0.369882 0.429234 0.443333
627 1 0.0558744 0.876041 0.572284
483 1 0.18719 0.492067 0.435143
487 1 0.434182 0.507363 0.439753
481 1 0.064218 0.502774 0.444487
484 1 0.118015 0.560872 0.43167
485 1 0.307246 0.503776 0.43347
486 1 0.247741 0.56313 0.445199
488 1 0.366131 0.560517 0.441685
489 1 0.0652479 0.622671 0.439494
491 1 0.182304 0.615713 0.436024
493 1 0.316529 0.623413 0.431201
495 1 0.430399 0.636475 0.44232
492 1 0.119948 0.684923 0.444296
494 1 0.237805 0.68931 0.437665
496 1 0.367362 0.688478 0.433948
497 1 0.0654749 0.751007 0.445831
499 1 0.178535 0.748805 0.43259
501 1 0.296631 0.748217 0.432205
503 1 0.436131 0.741282 0.425432
500 1 0.126031 0.818798 0.447764
502 1 0.239422 0.807432 0.437274
504 1 0.367813 0.817939 0.435027
545 1 0.00666275 0.24074 0.498379
505 1 0.0610961 0.881779 0.444371
507 1 0.186604 0.879484 0.442742
509 1 0.307274 0.872278 0.426027
511 1 0.433935 0.87749 0.43692
604 1 0.259057 0.68748 0.560888
508 1 0.123146 0.940499 0.437237
512 1 0.381722 0.93633 0.43637
449 1 0.0541281 0.00158041 0.443541
451 1 0.179612 0.00248397 0.434206
510 1 0.242161 0.944262 0.439124
624 1 0.375131 0.809605 0.54525
514 1 0.0571262 0.072141 0.496462
518 1 0.191707 0.064101 0.51005
521 1 0.245476 0.00333685 0.495038
522 1 0.320545 0.0778978 0.484354
526 1 0.432427 0.0595666 0.495944
1636 1 0.487179 0.818577 0.560528
533 1 0.127472 0.118295 0.514024
537 1 0.256977 0.124627 0.496526
541 1 0.381436 0.134151 0.485799
615 1 0.19924 0.755961 0.56971
530 1 0.0543814 0.177154 0.494688
534 1 0.188286 0.174785 0.502057
538 1 0.315315 0.183299 0.487138
542 1 0.44152 0.181512 0.50257
523 1 0.300792 0.00337076 0.570021
549 1 0.117689 0.256874 0.506176
553 1 0.254474 0.24082 0.510205
557 1 0.379203 0.252042 0.498259
632 1 0.108238 0.939188 0.570666
546 1 0.0650335 0.329074 0.508454
550 1 0.188068 0.300763 0.50214
554 1 0.305024 0.303415 0.494777
558 1 0.436637 0.319502 0.492091
565 1 0.130286 0.378137 0.490289
569 1 0.245039 0.358698 0.519703
573 1 0.361333 0.369141 0.505213
611 1 0.0627246 0.748585 0.571793
562 1 0.0745524 0.434875 0.507851
566 1 0.190631 0.433773 0.499153
570 1 0.308328 0.43968 0.497191
581 1 0.125987 0.496417 0.50179
585 1 0.248959 0.504275 0.497501
574 1 0.424609 0.432987 0.510938
589 1 0.378504 0.504425 0.500805
640 1 0.379363 0.945365 0.555931
578 1 0.0688539 0.570413 0.501438
582 1 0.181429 0.554961 0.493506
586 1 0.310299 0.563005 0.507191
590 1 0.431243 0.570718 0.497551
597 1 0.132762 0.619641 0.50592
601 1 0.256152 0.630249 0.495675
605 1 0.374471 0.630126 0.497717
594 1 0.0656892 0.689852 0.508046
598 1 0.181589 0.684245 0.502375
602 1 0.312735 0.694651 0.492808
606 1 0.440342 0.699508 0.495595
613 1 0.128508 0.749669 0.514905
617 1 0.240839 0.745674 0.501644
621 1 0.367072 0.753226 0.488623
620 1 0.243992 0.827572 0.561231
610 1 0.0607394 0.814576 0.514211
614 1 0.184285 0.817839 0.50264
618 1 0.31044 0.808895 0.494669
622 1 0.44282 0.802277 0.486045
629 1 0.112989 0.876754 0.505354
633 1 0.271976 0.879752 0.498667
637 1 0.379333 0.883981 0.498799
519 1 0.193444 0.00838881 0.568686
626 1 0.0519782 0.937877 0.503398
630 1 0.182079 0.94078 0.503649
634 1 0.310878 0.952134 0.498593
638 1 0.436973 0.940803 0.500223
517 1 0.119237 0.986079 0.500106
525 1 0.376588 0.00250812 0.498261
515 1 0.0619746 0.00558081 0.562247
520 1 0.124139 0.053678 0.563383
527 1 0.437142 0.00309391 0.56051
531 1 0.0469069 0.128192 0.557641
535 1 0.184158 0.114614 0.567913
524 1 0.251317 0.0672094 0.55785
528 1 0.362459 0.0631874 0.556006
636 1 0.24872 0.931609 0.550719
539 1 0.31498 0.133479 0.556841
543 1 0.427993 0.116708 0.554634
635 1 0.322438 0.875837 0.56186
536 1 0.115895 0.191351 0.552757
540 1 0.242234 0.173987 0.558727
544 1 0.378367 0.188221 0.564779
639 1 0.433801 0.88026 0.558333
547 1 0.0625583 0.248918 0.565963
551 1 0.186043 0.242427 0.561389
555 1 0.315423 0.248569 0.566463
559 1 0.434148 0.244809 0.555092
616 1 0.119799 0.812217 0.568451
552 1 0.124484 0.315433 0.559788
556 1 0.255098 0.299877 0.572987
560 1 0.375279 0.310545 0.553113
631 1 0.172075 0.873713 0.573621
563 1 0.0645594 0.38856 0.574711
567 1 0.186426 0.372935 0.575944
571 1 0.312366 0.364102 0.577237
575 1 0.443624 0.365927 0.559614
1601 1 0.501044 0.509425 0.490471
568 1 0.13267 0.43503 0.569498
576 1 0.372336 0.430385 0.56766
579 1 0.067414 0.492012 0.567052
572 1 0.248877 0.440754 0.554659
583 1 0.182372 0.497955 0.56226
587 1 0.316588 0.484992 0.573604
591 1 0.433444 0.497435 0.562696
584 1 0.122999 0.556126 0.565438
588 1 0.253596 0.547996 0.573234
592 1 0.370954 0.560063 0.560615
595 1 0.0732834 0.621322 0.562987
599 1 0.203673 0.606992 0.570007
603 1 0.316244 0.628008 0.556444
607 1 0.435658 0.622252 0.561368
600 1 0.127988 0.681571 0.564495
548 1 0.0127698 0.312392 0.565145
1498 1 0.478009 0.443051 0.439685
625 1 0.00388434 0.873484 0.49724
490 1 0.00638951 0.679576 0.444522
1604 1 0.498748 0.553493 0.564274
577 1 0.00846 0.50136 0.50586
1514 1 0.497681 0.688864 0.428899
1617 1 0.493497 0.623027 0.494326
466 1 0.016975 0.304291 0.45037
1490 1 0.486393 0.309279 0.432634
596 1 0.00785489 0.68256 0.568308
1506 1 0.490951 0.568341 0.431885
642 1 0.0632703 0.0689966 0.616287
1700 1 0.494155 0.3065 0.678553
649 1 0.255867 0.00440947 0.633542
831 1 0.377885 0.884383 0.749503
650 1 0.311451 0.0733184 0.623172
654 1 0.448471 0.064413 0.619363
1732 1 0.498414 0.551869 0.685512
661 1 0.11604 0.128566 0.617073
665 1 0.242949 0.125376 0.625898
669 1 0.379153 0.122444 0.618175
666 1 0.300712 0.189976 0.617644
658 1 0.0516376 0.187948 0.624053
662 1 0.176164 0.180424 0.622085
1817 1 0.49903 0.376352 0.757069
670 1 0.447365 0.181681 0.606437
708 1 0.000749503 0.559759 0.694933
677 1 0.12361 0.248383 0.623264
681 1 0.239032 0.236852 0.626607
685 1 0.377857 0.248468 0.620388
820 1 0.189516 0.815394 0.741151
674 1 0.0725683 0.3155 0.623869
678 1 0.179853 0.301937 0.613463
682 1 0.311248 0.304452 0.628713
686 1 0.440227 0.301765 0.615685
1713 1 0.498634 0.366328 0.626733
697 1 0.251968 0.371718 0.632771
701 1 0.383875 0.374789 0.62259
829 1 0.25176 0.875382 0.74354
690 1 0.0564041 0.44714 0.632803
694 1 0.197377 0.430075 0.631511
698 1 0.315598 0.424509 0.630028
814 1 0.30966 0.683792 0.737457
702 1 0.435985 0.436167 0.619928
709 1 0.138102 0.489697 0.631187
713 1 0.26338 0.495733 0.635652
717 1 0.377224 0.486378 0.626833
718 1 0.424093 0.550911 0.620825
706 1 0.0641063 0.557054 0.632242
710 1 0.191041 0.546559 0.63558
714 1 0.323522 0.561863 0.626385
725 1 0.1356 0.624357 0.623729
729 1 0.266025 0.622576 0.61908
733 1 0.371162 0.632125 0.617268
773 1 0.25415 0.00159962 0.749273
722 1 0.064292 0.692351 0.632627
726 1 0.194924 0.674247 0.618671
730 1 0.316146 0.687325 0.621706
734 1 0.438878 0.681519 0.614303
1777 1 0.500857 0.877849 0.616304
741 1 0.131771 0.740077 0.625367
745 1 0.26494 0.746532 0.62128
749 1 0.378207 0.75106 0.617417
646 1 0.192448 0.0614931 0.634029
738 1 0.0537359 0.807452 0.62995
742 1 0.186421 0.807974 0.628759
746 1 0.323749 0.813649 0.615608
750 1 0.433271 0.821329 0.618904
827 1 0.128978 0.877329 0.754774
757 1 0.123079 0.880814 0.630068
761 1 0.268433 0.875101 0.625968
765 1 0.373076 0.882029 0.628331
818 1 0.0625948 0.824294 0.746469
754 1 0.0540606 0.934895 0.633384
758 1 0.198679 0.93975 0.625786
762 1 0.329965 0.949769 0.620657
766 1 0.420753 0.951122 0.628518
645 1 0.134478 0.000621517 0.634199
653 1 0.372995 0.0208005 0.623175
652 1 0.256769 0.0664806 0.695354
828 1 0.196382 0.941221 0.751955
648 1 0.124757 0.0750532 0.681213
656 1 0.38248 0.0765023 0.685657
1849 1 0.489989 0.865997 0.751587
659 1 0.0589097 0.12187 0.679557
663 1 0.193045 0.126146 0.693678
667 1 0.323972 0.133817 0.691402
671 1 0.448634 0.132794 0.673851
826 1 0.0524508 0.937915 0.748686
664 1 0.127499 0.176618 0.695302
668 1 0.249062 0.184822 0.690806
672 1 0.389172 0.184341 0.672512
675 1 0.0832647 0.244229 0.697493
679 1 0.182607 0.240846 0.696015
683 1 0.326042 0.235763 0.686213
687 1 0.432224 0.253352 0.684
823 1 0.373794 0.743763 0.743172
680 1 0.140596 0.308911 0.686468
684 1 0.241591 0.29854 0.676925
688 1 0.375191 0.310178 0.681736
691 1 0.0687819 0.381764 0.675848
695 1 0.195957 0.364003 0.697741
699 1 0.314704 0.372187 0.696185
799 1 0.382095 0.369644 0.761517
703 1 0.447743 0.37771 0.689031
696 1 0.121112 0.439157 0.693139
700 1 0.258093 0.431862 0.689925
704 1 0.371899 0.431227 0.691145
676 1 0.00168735 0.317472 0.679397
707 1 0.0638206 0.498358 0.693275
711 1 0.19818 0.491471 0.693433
715 1 0.319381 0.49974 0.692488
719 1 0.442262 0.491261 0.694083
712 1 0.124581 0.563155 0.692017
716 1 0.260818 0.564438 0.684152
720 1 0.384316 0.550701 0.697036
812 1 0.19859 0.682469 0.742776
723 1 0.0720064 0.623963 0.676141
727 1 0.193236 0.618256 0.682594
731 1 0.318582 0.62203 0.688027
735 1 0.456164 0.626269 0.688317
821 1 0.250294 0.745302 0.748623
728 1 0.136005 0.678521 0.690606
732 1 0.252889 0.682279 0.6761
736 1 0.393058 0.690156 0.682679
739 1 0.0660597 0.747131 0.689854
743 1 0.191183 0.746079 0.683127
747 1 0.312718 0.746216 0.68613
751 1 0.436484 0.756944 0.697026
744 1 0.123666 0.809199 0.686391
748 1 0.250653 0.809705 0.673492
752 1 0.370048 0.817663 0.684963
755 1 0.0714558 0.876745 0.688796
759 1 0.183649 0.873427 0.685933
763 1 0.316176 0.886107 0.686579
767 1 0.44527 0.881056 0.686542
760 1 0.128283 0.938016 0.691239
764 1 0.254152 0.945187 0.692336
768 1 0.377677 0.942272 0.693678
819 1 0.124029 0.751802 0.752096
643 1 0.0709058 0.998327 0.6856
647 1 0.188337 0.993513 0.692177
651 1 0.312999 0.00862292 0.688183
655 1 0.447219 0.00315881 0.684331
774 1 0.321641 0.0641305 0.753475
775 1 0.377226 0.0112002 0.749044
770 1 0.0633659 0.0511563 0.747411
772 1 0.190622 0.0544946 0.749063
776 1 0.443499 0.0592539 0.747782
779 1 0.12949 0.122766 0.756543
781 1 0.257095 0.129579 0.744404
783 1 0.387344 0.134185 0.747875
824 1 0.427217 0.816937 0.744386
778 1 0.0557398 0.170001 0.745919
780 1 0.18821 0.178461 0.764936
782 1 0.305341 0.188037 0.757235
784 1 0.446792 0.18607 0.739085
771 1 0.131455 0.995721 0.747831
787 1 0.128066 0.242206 0.762753
789 1 0.250731 0.252044 0.752478
791 1 0.373932 0.229701 0.745265
810 1 0.0645997 0.683916 0.742786
786 1 0.0646188 0.30877 0.747332
788 1 0.190734 0.300107 0.766605
790 1 0.315334 0.300199 0.73592
792 1 0.441657 0.311156 0.740703
822 1 0.315168 0.80895 0.746103
795 1 0.119483 0.368985 0.739076
797 1 0.255491 0.349832 0.755977
816 1 0.44096 0.688699 0.754012
794 1 0.0612911 0.437802 0.747666
796 1 0.195547 0.432778 0.746883
798 1 0.316022 0.436192 0.744531
800 1 0.43903 0.431891 0.754907
830 1 0.313594 0.940019 0.744889
803 1 0.127319 0.493054 0.754346
807 1 0.383702 0.497984 0.759165
832 1 0.443666 0.941104 0.749405
805 1 0.259842 0.501177 0.748968
802 1 0.060945 0.556284 0.752269
804 1 0.190975 0.551123 0.748162
806 1 0.321622 0.56024 0.75237
808 1 0.448947 0.576455 0.747427
811 1 0.125895 0.632531 0.751439
813 1 0.251726 0.61881 0.756532
815 1 0.380783 0.618782 0.736335
721 1 0.0101878 0.620992 0.619302
886 1 0.248431 0.814446 0.798767
756 1 -0.00341616 0.943223 0.690129
1729 1 0.485665 0.49805 0.62937
693 1 0.131871 0.371371 0.631981
1761 1 0.483629 0.750492 0.619404
793 1 -0.00191029 0.374591 0.754546
1809 1 0.498488 0.253734 0.744176
1764 1 0.499459 0.810101 0.686894
737 1 -0.00147748 0.741175 0.627831
673 1 0.00678747 0.256288 0.62472
1748 1 0.499863 0.702123 0.683369
1745 1 0.495563 0.62535 0.619397
801 1 0.00370492 0.499092 0.755831
881 1 0.0579195 0.748343 0.7967
876 1 0.113819 0.690892 0.806622
880 1 0.371688 0.689376 0.806027
845 1 0.318095 0.12405 0.813
911 1 0.44067 0.995257 0.934288
41 1 0.249367 0.244623 0.992323
864 1 0.382108 0.438529 0.817087
862 1 0.260493 0.435123 0.808608
1013 1 0.133298 0.818102 0.815897
838 1 0.252142 0.0602452 0.813631
879 1 0.451705 0.62604 0.811886
861 1 0.314042 0.37278 0.814343
883 1 0.180814 0.757401 0.809208
840 1 0.380121 0.0600248 0.816437
839 1 0.440442 0.997057 0.81439
873 1 0.0570682 0.629007 0.801888
852 1 0.135938 0.31986 0.820619
941 1 0.373075 0.239393 0.878478
1866 1 0.493342 0.19183 0.81106
843 1 0.185844 0.12429 0.825389
930 1 0.0531344 0.318373 0.874279
869 1 0.314775 0.504038 0.809831
892 1 0.127663 0.938147 0.808558
938 1 0.318342 0.314092 0.873708
895 1 0.441964 0.875864 0.817329
859 1 0.192094 0.375673 0.807409
896 1 0.378991 0.922876 0.821819
949 1 0.106492 0.378145 0.876523
853 1 0.316316 0.247423 0.813894
953 1 0.253813 0.381584 0.867943
21 1 0.129877 0.117392 0.995843
929 1 0.00503867 0.245215 0.865241
74 1 0.316878 0.557775 0.995388
867 1 0.193526 0.494123 0.805225
856 1 0.369415 0.303257 0.80973
885 1 0.316475 0.75011 0.804141
833 1 0.0697408 0.997296 0.809216
846 1 0.247575 0.195332 0.820002
868 1 0.134246 0.556956 0.805291
854 1 0.251952 0.296349 0.832915
118 1 0.192765 0.947076 0.997833
973 1 0.388765 0.511445 0.872953
1914 1 0.502005 0.937202 0.810729
863 1 0.440919 0.376967 0.829538
870 1 0.242583 0.552836 0.809031
17 1 0.0106889 0.140391 0.986569
875 1 0.188283 0.634772 0.807103
73 1 0.241724 0.495882 0.996466
849 1 0.0659757 0.256404 0.813858
18 1 0.0760986 0.186381 0.995374
85 1 0.122647 0.623318 0.993019
888 1 0.373136 0.823352 0.809368
872 1 0.386069 0.566823 0.808121
841 1 0.0672699 0.116265 0.807609
834 1 0.00302397 0.0545593 0.821677
1921 1 0.501198 0.994719 0.872498
897 1 0.00309646 0.982392 0.868962
858 1 -0.00102672 0.436394 0.807944
980 1 0.00623129 0.698047 0.946451
117 1 0.123022 0.87744 0.997501
851 1 0.187401 0.236613 0.824615
900 1 0.00440998 0.0465824 0.924154
891 1 0.185625 0.884121 0.81072
836 1 0.127085 0.0604048 0.808425
1858 1 0.496143 0.0568079 0.820072
995 1 0.0645668 0.755388 0.948585
835 1 0.184899 0.996837 0.818019
893 1 0.302856 0.873907 0.806597
903 1 0.193667 0.994905 0.927304
860 1 0.126943 0.442292 0.821227
1924 1 0.499419 0.0573698 0.939425
909 1 0.376031 0.986607 0.877728
910 1 0.432211 0.0505051 0.876421
898 1 0.0761055 0.0574387 0.872025
902 1 0.196702 0.0611099 0.87766
906 1 0.31684 0.0569023 0.866231
42 1 0.306385 0.320426 0.997801
917 1 0.13691 0.115787 0.885951
921 1 0.259285 0.122385 0.87237
925 1 0.376314 0.11872 0.870585
855 1 0.433209 0.249684 0.80686
914 1 0.0602811 0.171532 0.872075
918 1 0.192799 0.178891 0.884309
922 1 0.320168 0.180785 0.876777
926 1 0.435679 0.187819 0.877561
2017 1 0.500442 0.74559 0.872592
933 1 0.124788 0.244793 0.876213
937 1 0.241832 0.245928 0.891367
939 1 0.316163 0.251993 0.932362
1953 1 0.496778 0.250642 0.865644
948 1 0.000315678 0.440645 0.946859
936 1 0.12058 0.314147 0.933366
934 1 0.182337 0.301275 0.88205
942 1 0.446112 0.314299 0.880175
1937 1 0.495905 0.122307 0.890944
955 1 0.311754 0.384248 0.93193
957 1 0.377204 0.376258 0.874256
946 1 0.0639682 0.44434 0.879232