LAMMPS (15 Sep 2022)
OMP_NUM_THREADS environment is not set. Defaulting to 1 thread. (src/comm.cpp:98)
  using 1 OpenMP thread(s) per MPI task
# 2d WCA system, random initial configuration

#variable density equal 0.5
variable initial_temperature equal 3.0
variable final_temperature equal 0.1
variable dt equal 0.01
variable tau equal 100*${dt}
variable tau equal 100*0.01
variable thermo_time equal 50000*${dt}
variable thermo_time equal 50000*0.01
variable equil_steps equal 50000
variable run_steps equal 100000

units           lj
atom_style      atomic
dimension       3

lattice         fcc ${density}
lattice         fcc 1.2
Lattice spacing in x,y,z = 1.4938016 1.4938016 1.4938016
region          box block 0 8 0 8 0 8
# number of atom types
create_box      1 box
Created orthogonal box = (0 0 0) to (11.950413 11.950413 11.950413)
  2 by 1 by 5 MPI processor grid
create_atoms    1 box
Created 2048 atoms
  using lattice units in orthogonal box = (0 0 0) to (11.950413 11.950413 11.950413)
  create_atoms CPU = 0.000 seconds
mass 1 1.0

velocity all create ${initial_temperature} 12345
velocity all create 3 12345

pair_style      lj/cut 1.0
#type_1 type_2 epsilon sigma cutoff
pair_coeff      1 1 10.0 0.89089871814 1.0
pair_modify shift yes

timestep ${dt}
timestep 0.01
thermo ${thermo_time}
thermo 500

fix 1 all nvt temp ${initial_temperature} ${initial_temperature} ${tau}
fix 1 all nvt temp 3 ${initial_temperature} ${tau}
fix 1 all nvt temp 3 3 ${tau}
fix 1 all nvt temp 3 3 1
run ${equil_steps}
run 50000
Generated 0 of 0 mixed pair_coeff terms from geometric mixing rule
Neighbor list info ...
  update: every = 1 steps, delay = 0 steps, check = yes
  max neighbors/atom: 2000, page size: 100000
  master list distance cutoff = 1.3
  ghost atom cutoff = 1.3
  binsize = 0.65, bins = 19 19 19
  1 neighbor lists, perpetual/occasional/extra = 1 0 0
  (1) pair lj/cut, perpetual
      attributes: half, newton on
      pair build: half/bin/atomonly/newton
      stencil: half/bin/3d
      bin: standard
Per MPI rank memory allocation (min/avg/max) = 3.081 | 3.088 | 3.09 Mbytes
   Step          Temp          E_pair         E_mol          TotEng         Press     
         0   3              0              0              4.4978027      3.5982422    
       500   3.0745965      2.5277274      0              7.1373702      41.038091    
      1000   3.0036276      2.3003733      0              6.8036148      38.494744    
      1500   2.9762573      2.2345966      0              6.6968027      37.774134    
      2000   2.9208992      2.3487134      0              6.7279229      38.848844    
      2500   2.9786353      2.2587676      0              6.724539       38.037827    
      3000   2.9912733      2.2986221      0              6.7833411      38.324549    
      3500   3.0838203      2.2629948      0              6.8864666      38.205721    
      4000   2.9770454      2.2862037      0              6.7495913      38.503243    
      4500   3.0889678      2.3203834      0              6.9515726      38.808023    
      5000   2.9051268      2.3856748      0              6.7412372      39.192201    
      5500   3.1207185      2.2712291      0              6.9500212      38.249982    
      6000   2.9815851      2.2514798      0              6.7216737      38.098564    
      6500   3.057518       2.2629568      0              6.8469944      38.098276    
      7000   2.9924459      2.3489301      0              6.8354072      39.013117    
      7500   3.0410695      2.267418       0              6.8267948      38.093773    
      8000   3.0237469      2.3233074      0              6.8567131      38.694813    
      8500   3.0294429      2.2406749      0              6.7826205      37.764216    
      9000   3.0563839      2.2037525      0              6.7860898      37.628326    
      9500   3.0162209      2.250197       0              6.7723192      38.088994    
     10000   3.1226126      2.2231591      0              6.9047909      37.762467    
     10500   2.8820736      2.2750754      0              6.596075       38.10767     
     11000   2.9972609      2.3544255      0              6.8481216      39.090767    
     11500   2.993803       2.1451157      0              6.6336274      36.709316    
     12000   3.01871        2.3311241      0              6.8569782      38.771795    
     12500   2.8920398      2.2610323      0              6.5969738      38.187002    
     13000   2.9485045      2.3152045      0              6.7358017      38.68381     
     13500   3.0668895      2.1782618      0              6.7763498      37.228039    
     14000   3.0795413      2.2829582      0              6.9000146      38.065246    
     14500   2.9893236      2.3203334      0              6.8021293      38.862013    
     15000   3.1324859      2.4385396      0              7.1349742      39.92931     
     15500   2.9653144      2.2763         0              6.7220998      37.684209    
     16000   3.0631219      2.2331085      0              6.8255478      37.521865    
     16500   2.9396109      2.1973306      0              6.604594       37.230038    
     17000   3.0728608      2.2557115      0              6.8627521      37.829196    
     17500   2.9783351      2.2377588      0              6.70308        37.603775    
     18000   3.0182458      2.2801012      0              6.8052593      38.033181    
     18500   2.9796759      2.3484918      0              6.8158232      38.912705    
     19000   2.985949       2.2770036      0              6.75374        38.264691    
     19500   3.0772275      2.3162578      0              6.9298453      38.534086    
     20000   3.061148       2.155937       0              6.7454169      37.012025    
     20500   3.0041575      2.35798        0              6.8620159      39.401638    
     21000   3.0093041      2.243205       0              6.7549571      37.885209    
     21500   3.0735271      2.248113       0              6.8561526      37.596661    
     22000   3.0694807      2.2866242      0              6.8885972      38.015958    
     22500   3.0015711      2.3113598      0              6.811518       38.354288    
     23000   2.9655199      2.3117218      0              6.7578297      38.502185    
     23500   3.0691503      2.3010708      0              6.9025483      38.577901    
     24000   2.9779401      2.2309387      0              6.6956677      37.522466    
     24500   2.865527       2.3369864      0              6.6331781      38.843052    
     25000   3.0297391      2.2134397      0              6.7558294      37.263467    
     25500   3.0265741      2.2581563      0              6.7958007      38.296713    
     26000   2.9847444      2.1837995      0              6.65873        36.867214    
     26500   3.0766404      2.2016861      0              6.8143932      37.681205    
     27000   2.9639157      2.2646662      0              6.708369       37.931864    
     27500   3.0304852      2.4234546      0              6.9669627      40.031333    
     28000   3.0426173      2.2595191      0              6.8212166      38.154622    
     28500   3.0607489      2.4988749      0              7.0877565      40.731385    
     29000   2.9318476      2.3092547      0              6.7048787      38.546283    
     29500   3.0438474      2.2197249      0              6.7832666      37.528865    
     30000   2.9753913      2.1952567      0              6.6561644      37.209404    
     30500   2.9609993      2.3282489      0              6.7675791      38.732086    
     31000   3.0396727      2.3003377      0              6.8576204      38.151061    
     31500   2.9296277      2.3718361      0              6.764132       38.914907    
     32000   3.0882846      2.2667042      0              6.8968692      38.042162    
     32500   3.0075234      2.2266108      0              6.7356931      37.654223    
     33000   3.0515635      2.3218715      0              6.8969817      38.681488    
     33500   2.92544        2.3460182      0              6.7320356      38.847045    
     34000   2.9854098      2.2004412      0              6.6763693      37.404937    
     34500   2.929116       2.4085442      0              6.8000728      39.622845    
     35000   2.9696183      2.3058251      0              6.7580775      38.44181     
     35500   2.9831103      2.333777       0              6.8062576      38.647226    
     36000   3.1141315      2.3820656      0              7.050982       39.326934    
     36500   2.9836005      2.2554192      0              6.7286348      37.415412    
     37000   3.064265       2.3955284      0              6.9896815      39.249131    
     37500   2.9327733      2.3287547      0              6.7257666      38.41554     
     38000   3.0584481      2.3457878      0              6.9312198      39.069669    
     38500   2.9627396      2.3283729      0              6.7703123      38.867697    
     39000   3.0535852      2.3365346      0              6.9146759      38.634065    
     39500   2.9965577      2.227639       0              6.7202808      37.479684    
     40000   3.0509798      2.3297076      0              6.9039427      38.846599    
     40500   2.9631818      2.3524602      0              6.7950627      38.979948    
     41000   2.989915       2.2696025      0              6.7522851      38.225457    
     41500   3.0369735      2.3239289      0              6.8771647      39.127987    
     42000   3.0013335      2.1855238      0              6.6853258      37.187504    
     42500   2.9296816      2.3812156      0              6.7735923      39.046837    
     43000   2.871963       2.3721156      0              6.6779567      38.941137    
     43500   3.0041894      2.2811936      0              6.7852774      38.393351    
     44000   3.0051873      2.3540991      0              6.8596789      38.95303     
     44500   3.0342106      2.2728331      0              6.8219267      38.510725    
     45000   3.1462694      2.3737988      0              7.0908985      39.389836    
     45500   3.0225957      2.2113087      0              6.7429884      37.715668    
     46000   2.9961083      2.3008597      0              6.7928278      38.429047    
     46500   3.1338771      2.3220379      0              7.0205583      38.484931    
     47000   2.9718836      2.2820315      0              6.7376803      38.385222    
     47500   2.9867159      2.2913531      0              6.7692393      38.047842    
     48000   3.0423133      2.4029736      0              6.9642153      39.871419    
     48500   2.9480346      2.2139929      0              6.6338855      37.393023    
     49000   3.0474935      2.2444333      0              6.8134415      37.970074    
     49500   2.9967909      2.279435       0              6.7724264      38.232358    
     50000   3.086001       2.3347895      0              6.9615307      38.598153    
Loop time of 4.12545 on 10 procs for 50000 steps with 2048 atoms

Performance: 10471578.173 tau/day, 12119.882 timesteps/s, 24.822 Matom-step/s
99.6% CPU use with 10 MPI tasks x 1 OpenMP threads

MPI task timing breakdown:
Section |  min time  |  avg time  |  max time  |%varavg| %total
---------------------------------------------------------------
Pair    | 0.56332    | 0.60439    | 0.66734    |   5.6 | 14.65
Neigh   | 1.7398     | 1.9273     | 2.1579     |   9.9 | 46.72
Comm    | 0.92863    | 1.0985     | 1.4154     |  16.2 | 26.63
Output  | 0.0013626  | 0.001792   | 0.0054297  |   2.9 |  0.04
Modify  | 0.20887    | 0.33351    | 0.53592    |  21.6 |  8.08
Other   |            | 0.1599     |            |       |  3.88

Nlocal:          204.8 ave         237 max         189 min
Histogram: 2 4 0 0 2 0 0 1 0 1
Nghost:            500 ave         546 max         442 min
Histogram: 2 1 1 0 0 0 0 2 2 2
Neighs:         1227.9 ave        1410 max        1140 min
Histogram: 4 2 0 1 0 1 0 0 0 2

Total # of neighbors = 12279
Ave neighs/atom = 5.9956055
Neighbor list builds = 20066
Dangerous builds = 0

unfix 1
dump           1 all atom ${run_steps} 3dWCA_T${final_temperature}_d${density}_N${run_steps}.lammpstrj
dump           1 all atom 100000 3dWCA_T${final_temperature}_d${density}_N${run_steps}.lammpstrj
dump           1 all atom 100000 3dWCA_T0.1_d${density}_N${run_steps}.lammpstrj
dump           1 all atom 100000 3dWCA_T0.1_d1.2_N${run_steps}.lammpstrj
dump           1 all atom 100000 3dWCA_T0.1_d1.2_N100000.lammpstrj
dump           2 all dcd ${thermo_time} 3dWCA_T${final_temperature}_d${density}_N${run_steps}.dcd
dump           2 all dcd 500 3dWCA_T${final_temperature}_d${density}_N${run_steps}.dcd
dump           2 all dcd 500 3dWCA_T0.1_d${density}_N${run_steps}.dcd
dump           2 all dcd 500 3dWCA_T0.1_d1.2_N${run_steps}.dcd
dump           2 all dcd 500 3dWCA_T0.1_d1.2_N100000.dcd
fix 1 all nvt temp ${initial_temperature} ${final_temperature} ${tau}
fix 1 all nvt temp 3 ${final_temperature} ${tau}
fix 1 all nvt temp 3 0.1 ${tau}
fix 1 all nvt temp 3 0.1 1

run ${run_steps}
run 100000
Generated 0 of 0 mixed pair_coeff terms from geometric mixing rule
Per MPI rank memory allocation (min/avg/max) = 3.139 | 3.142 | 3.143 Mbytes
   Step          Temp          E_pair         E_mol          TotEng         Press     
     50000   3.086001       2.3347895      0              6.9615307      38.598153    
     50500   2.9736271      2.2533451      0              6.7116078      37.659485    
     51000   2.9754107      2.1850905      0              6.6460273      37.380327    
     51500   2.9341514      2.2361451      0              6.6352231      37.463336    
     52000   2.9274344      2.1695941      0              6.5586016      36.913148    
     52500   2.924799       2.2521702      0              6.6372266      37.402658    
     53000   2.8561557      2.1324468      0              6.4145884      36.476669    
     53500   2.9092309      2.2530829      0              6.6147985      37.417321    
     54000   2.823239       2.1880273      0              6.4208179      37.288333    
     54500   2.8657184      2.2610822      0              6.5575609      37.672566    
     55000   2.8291717      2.0782848      0              6.3199703      35.802515    
     55500   2.8708743      2.2133358      0              6.5175446      36.95247     
     56000   2.8279467      2.1054811      0              6.3453299      36.144375    
     56500   2.7371052      2.1873183      0              6.2909714      36.781833    
     57000   2.7530676      2.1706489      0              6.2982338      36.698462    
     57500   2.8703514      2.1877139      0              6.4911387      36.920168    
     58000   2.7820271      2.0192686      0              6.1902716      35.15016     
     58500   2.7790886      1.984303       0              6.1509004      34.880795    
     59000   2.7386783      2.163407       0              6.2694186      36.585491    
     59500   2.7358439      1.9438792      0              6.0456413      34.085602    
     60000   2.6857135      1.9617512      0              5.9883543      34.207583    
     60500   2.7005021      1.997322       0              6.0460972      34.783063    
     61000   2.6848975      1.9864193      0              6.011799       34.624485    
     61500   2.7917452      1.9557959      0              6.141369       34.274648    
     62000   2.5909639      1.9462045      0              5.8307527      34.12353     
     62500   2.6432489      1.976584       0              5.9395214      34.446289    
     63000   2.6126813      1.8173023      0              5.7344107      32.438315    
     63500   2.5650943      1.9576348      0              5.8033976      34.155066    
     64000   2.6346011      1.7823365      0              5.7323085      32.398383    
     64500   2.5445472      1.9091435      0              5.7241006      33.345171    
     65000   2.5434341      1.8356592      0              5.6489475      32.710486    
     65500   2.6005162      1.8098442      0              5.7087139      32.453672    
     66000   2.5859767      1.8525086      0              5.7295797      32.903239    
     66500   2.6384014      1.9124505      0              5.8681201      33.639655    
     67000   2.4933617      1.7819483      0              5.5201645      32.217178    
     67500   2.512422       1.7812874      0              5.5480803      32.233516    
     68000   2.4715112      1.7768962      0              5.4823528      32.048391    
     68500   2.4081712      1.8402944      0              5.4507875      32.656934    
     69000   2.4390349      1.7602154      0              5.4169813      31.759657    
     69500   2.4429683      1.6642026      0              5.3268657      30.546556    
     70000   2.4404618      1.7110074      0              5.3699127      31.331704    
     70500   2.4082929      1.7171892      0              5.3278646      31.321768    
     71000   2.3975371      1.7194449      0              5.3139946      30.88707     
     71500   2.3846285      1.6806291      0              5.2558254      30.720315    
     72000   2.409971       1.6210605      0              5.2342518      30.344738    
     72500   2.3580254      1.6523236      0              5.1876347      30.516718    
     73000   2.3697064      1.5915573      0              5.1443813      29.656005    
     73500   2.2604276      1.8033913      0              5.1923771      32.16127     
     74000   2.3662012      1.7628508      0              5.3104196      31.537956    
     74500   2.3156654      1.582925       0              5.0547271      29.488445    
     75000   2.2111159      1.6789341      0              4.9939884      30.551655    
     75500   2.2339811      1.6236525      0              4.9729879      29.970751    
     76000   2.2133827      1.6941652      0              5.0126182      30.524194    
     76500   2.2775959      1.5726753      0              4.987401       29.486461    
     77000   2.2601883      1.6690552      0              5.0576822      30.413954    
     77500   2.2336524      1.5507556      0              4.8995983      28.827275    
     78000   2.2126372      1.652711       0              4.9700462      30.429659    
     78500   2.1365242      1.5688534      0              4.7720749      29.180666    
     79000   2.1478466      1.5829049      0              4.8031017      29.589694    
     79500   2.0768389      1.5323109      0              4.6460482      28.653582    
     80000   2.1085849      1.4832942      0              4.6446273      28.146706    
     80500   2.1088144      1.4430238      0              4.6047008      27.580372    
     81000   2.0573475      1.5174011      0              4.6019155      28.279318    
     81500   2.0589647      1.5036446      0              4.5905836      28.407061    
     82000   2.1358768      1.4673311      0              4.669582       27.7873      
     82500   2.0904048      1.4478828      0              4.5819589      27.534316    
     83000   2.1184276      1.5041876      0              4.6802774      28.360218    
     83500   2.0108479      1.4020036      0              4.4168027      26.968773    
     84000   1.9537629      1.4581475      0              4.3873609      27.63824     
     84500   1.9418256      1.4213544      0              4.3326706      27.215579    
     85000   1.9593261      1.3844479      0              4.322002       26.705226    
     85500   1.9172776      1.3933665      0              4.2678786      26.499744    
     86000   1.9608751      1.3251751      0              4.2650516      25.880272    
     86500   1.9195654      1.3639037      0              4.2418459      26.602853    
     87000   1.9567678      1.3630132      0              4.2967317      26.338373    
     87500   1.9166578      1.3764498      0              4.2500326      26.569791    
     88000   1.9637235      1.3908031      0              4.3349501      26.899021    
     88500   1.8716293      1.3448663      0              4.1509394      26.10091     
     89000   1.9199332      1.260328       0              4.1388216      25.031994    
     89500   1.8267162      1.3009772      0              4.0397135      25.60541     
     90000   1.8049141      1.298677       0              4.0047262      25.398737    
     90500   1.7872483      1.2933278      0              3.9728912      25.502565    
     91000   1.7835822      1.2464647      0              3.9205316      24.536774    
     91500   1.7811878      1.1950071      0              3.8654841      24.131168    
     92000   1.7574968      1.2018931      0              3.836851       24.22218     
     92500   1.7254005      1.2196219      0              3.806459       24.366786    
     93000   1.7423539      1.1612069      0              3.7734616      23.521327    
     93500   1.6904698      1.2222564      0              3.756723       24.35583     
     94000   1.7254054      1.1067823      0              3.6936267      23.077257    
     94500   1.7180568      1.1491789      0              3.7250058      23.320123    
     95000   1.7347825      1.1280353      0              3.7289385      23.223339    
     95500   1.7331773      1.1960042      0              3.7945007      24.091929    
     96000   1.7123607      1.0900769      0              3.6573638      22.89671     
     96500   1.6965462      1.0837733      0              3.6273501      22.459853    
     97000   1.6567535      1.1039111      0              3.5878279      22.729366    
     97500   1.6175487      1.0766594      0              3.5017977      22.320772    
     98000   1.6068546      1.0294451      0              3.4385501      21.848264    
     98500   1.5927853      1.0391975      0              3.4272088      21.830304    
     99000   1.6149474      1.0492374      0              3.4704756      22.180798    
     99500   1.5961453      1.0457565      0              3.4388053      21.99244     
    100000   1.5797074      1.0645203      0              3.4329243      22.138105    
    100500   1.5538499      1.0434526      0              3.3730893      21.838805    
    101000   1.5651434      1.0093988      0              3.3559677      21.559325    
    101500   1.5589149      0.99304957     0              3.3302801      21.336756    
    102000   1.5158934      1.0100317      0              3.2827615      21.465803    
    102500   1.5393286      0.99334602     0              3.3012115      21.200503    
    103000   1.5079702      0.93328359     0              3.1941345      20.33235     
    103500   1.4790974      0.9723367      0              3.1898995      20.861789    
    104000   1.4440633      0.9013093      0              3.0663466      19.737832    
    104500   1.4274558      0.8823377      0              3.0224759      19.599477    
    105000   1.4185988      0.85981148     0              2.9866707      19.210152    
    105500   1.4067803      0.86726177     0              2.9764018      19.173009    
    106000   1.3670833      0.89114693     0              2.9407706      19.649734    
    106500   1.3574774      0.89700425     0              2.9322262      19.45385     
    107000   1.3434269      0.85557945     0              2.8697359      18.956218    
    107500   1.3569106      0.82196029     0              2.8563324      18.771451    
    108000   1.3124017      0.82733337     0              2.7949747      18.38954     
    108500   1.2897597      0.80536084     0              2.7390557      18.136704    
    109000   1.3060958      0.76509607     0              2.7232832      17.784725    
    109500   1.251171       0.81020929     0              2.6860494      18.435104    
    110000   1.2696128      0.77899001     0              2.6824794      17.842698    
    110500   1.2486061      0.79818784     0              2.6701825      18.166028    
    111000   1.2489152      0.7663818      0              2.6388399      17.463839    
    111500   1.2666973      0.78506411     0              2.6841824      17.826001    
    112000   1.2095539      0.73657261     0              2.5500175      17.19539     
    112500   1.2012909      0.72272793     0              2.5237844      17.029582    
    113000   1.1666914      0.73418448     0              2.4833671      17.14786     
    113500   1.2026661      0.71948903     0              2.5226073      16.920008    
    114000   1.148501       0.66721234     0              2.3891227      15.924317    
    114500   1.1312187      0.71207529     0              2.4080748      16.725964    
    115000   1.0821324      0.68888021     0              2.3112863      16.333121    
    115500   1.0954781      0.70538105     0              2.3477959      16.627972    
    116000   1.1356397      0.6698021      0              2.3724298      16.079399    
    116500   1.0601643      0.65167742     0              2.2411474      15.853958    
    117000   1.063013       0.65429095     0              2.2480319      15.696418    
    117500   1.0379363      0.59895148     0              2.1550957      14.880343    
    118000   1.0364565      0.62582246     0              2.1797481      15.366345    
    118500   1.0268029      0.62077489     0              2.1602272      15.234846    
    119000   1.0499284      0.61257802     0              2.1867016      15.090928    
    119500   0.97479676     0.57485478     0              2.036336       14.393183    
    120000   0.95985024     0.57358404     0              2.0126564      14.359082    
    120500   0.93548936     0.56962312     0              1.972172       14.219921    
    121000   0.93346018     0.5628856      0              1.9623922      14.158658    
    121500   0.93078431     0.5736525      0              1.9691472      14.390172    
    122000   0.92585954     0.54903478     0              1.937146       14.012205    
    122500   0.92375142     0.52045476     0              1.9054053      13.424255    
    123000   0.8819629      0.52598427     0              1.8482826      13.417671    
    123500   0.89435346     0.52272556     0              1.8636007      13.558497    
    124000   0.84260282     0.48861354     0              1.7519006      12.950497    
    124500   0.83378126     0.45874497     0              1.7088062      12.462509    
    125000   0.82908248     0.47064959     0              1.7136661      12.721869    
    125500   0.81623609     0.48946523     0              1.7132215      12.751206    
    126000   0.79938165     0.46015848     0              1.6586455      12.407799    
    126500   0.79286156     0.4680954      0              1.656807       12.496171    
    127000   0.77087385     0.41901267     0              1.5747588      11.72272     
    127500   0.75655419     0.44367083     0              1.577948       12.084643    
    128000   0.73879425     0.42688649     0              1.5345368      11.776262    
    128500   0.727589       0.40114594     0              1.4919965      11.266969    
    129000   0.722036       0.40346452     0              1.4859897      11.313575    
    129500   0.68140329     0.38744927     0              1.4090551      10.947275    
    130000   0.68942315     0.37704056     0              1.4106703      10.753103    
    130500   0.67728235     0.35403781     0              1.3694653      10.406448    
    131000   0.65817175     0.38155819     0              1.3683338      10.860401    
    131500   0.63538673     0.33166821     0              1.2842829      9.8837951    
    132000   0.63602918     0.32294516     0              1.2765231      9.770275     
    132500   0.59722831     0.32464994     0              1.220055       9.7425906    
    133000   0.58483748     0.31566052     0              1.1924884      9.4971065    
    133500   0.57545526     0.29833966     0              1.1611011      9.1436216    
    134000   0.55638785     0.28732205     0              1.1214963      8.9299079    
    134500   0.55428539     0.28537472     0              1.1163968      8.8823619    
    135000   0.54495245     0.26774892     0              1.0847785      8.5759764    
    135500   0.5452419      0.27055543     0              1.0880189      8.6756935    
    136000   0.50663216     0.24282733     0              1.0024045      7.9326199    
    136500   0.49628655     0.22789061     0              0.97195694     7.7084505    
    137000   0.47298125     0.23062755     0              0.939753       7.719331     
    137500   0.46252802     0.21691065     0              0.91036391     7.3928901    
    138000   0.44394101     0.21716419     0              0.88275055     7.4113839    
    138500   0.44198043     0.19963663     0              0.86228355     6.9770791    
    139000   0.42177266     0.18737294     0              0.81972301     6.7791587    
    139500   0.39592603     0.19142995     0              0.78502902     6.7670407    
    140000   0.39339851     0.17527819     0              0.76508783     6.4151526    
    140500   0.36975034     0.18385716     0              0.73821185     6.5567132    
    141000   0.35271825     0.17319869     0              0.70201773     6.3993877    
    141500   0.35998503     0.15616773     0              0.69588161     5.8949911    
    142000   0.3239865      0.15353688     0              0.63927933     5.7939435    
    142500   0.31637706     0.14690518     0              0.62123905     5.6357443    
    143000   0.293251       0.12950553     0              0.56916725     5.2574144    
    143500   0.29330823     0.11616078     0              0.55590831     4.8247832    
    144000   0.26792208     0.11124388     0              0.51293077     4.6479142    
    144500   0.26315623     0.10584595     0              0.50038755     4.5092498    
    145000   0.23758654     0.096769947    0              0.45297574     4.1832641    
    145500   0.23502414     0.091151092    0              0.44351517     4.1493455    
    146000   0.21522        0.08816643     0              0.41083879     4.0136794    
    146500   0.20348466     0.077353123    0              0.38243108     3.5883573    
    147000   0.18851281     0.070594811    0              0.35322596     3.4701414    
    147500   0.17505541     0.062343257    0              0.32479815     3.1215096    
    148000   0.15831038     0.058958942    0              0.29630856     3.0466527    
    148500   0.14325735     0.052666482    0              0.26744758     2.7952674    
    149000   0.13175359     0.041649259    0              0.23918315     2.4362791    
    149500   0.11800859     0.034387954    0              0.2113144      2.1422144    
    150000   0.10056944     0.03263054     0              0.18341103     2.0282015    
Loop time of 6.49514 on 10 procs for 100000 steps with 2048 atoms

Performance: 13302243.748 tau/day, 15396.115 timesteps/s, 31.531 Matom-step/s
99.4% CPU use with 10 MPI tasks x 1 OpenMP threads

MPI task timing breakdown:
Section |  min time  |  avg time  |  max time  |%varavg| %total
---------------------------------------------------------------
Pair    | 0.96306    | 1.0459     | 1.1664     |   8.3 | 16.10
Neigh   | 2.2716     | 2.5536     | 2.8971     |  13.0 | 39.32
Comm    | 1.6153     | 1.8845     | 2.3763     |  19.4 | 29.01
Output  | 0.10592    | 0.10608    | 0.10705    |   0.1 |  1.63
Modify  | 0.41777    | 0.61197    | 0.90439    |  23.7 |  9.42
Other   |            | 0.293      |            |       |  4.51

Nlocal:          204.8 ave         232 max         185 min
Histogram: 3 0 3 0 0 1 0 0 1 2
Nghost:          490.4 ave         547 max         408 min
Histogram: 3 0 1 0 0 0 0 0 2 4
Neighs:         1229.5 ave        1420 max        1110 min
Histogram: 3 0 3 0 0 1 0 2 0 1

Total # of neighbors = 12295
Ave neighs/atom = 6.003418
Neighbor list builds = 28035
Dangerous builds = 0
Total wall time: 0:00:10
