ITEM: TIMESTEP
100000
ITEM: NUMBER OF ATOMS
2048
ITEM: BOX BOUNDS pp pp pp
0.0000000000000000e+00 1.1635780856594225e+01
0.0000000000000000e+00 1.1635780856594225e+01
0.0000000000000000e+00 1.1635780856594225e+01
ITEM: ATOMS id type xs ys zs
4 1 -0.00184686 0.0616995 0.0597032
1037 1 0.371127 0.496076 0.00129602
1179 1 0.81247 0.492095 0.184333
16 1 0.376249 0.0544601 0.063845
27 1 0.816991 -0.000511627 0.0585351
20 1 0.50268 0.0647204 0.0640357
24 1 0.628182 0.0721594 0.0635354
256 1 0.871233 0.436054 0.183275
252 1 0.748119 0.432784 0.185956
32 1 0.871884 0.0587999 0.0591543
147 1 0.565088 0.00851789 0.184358
133 1 0.127491 0.00736101 0.125287
45 1 0.376306 0.1215 0.00027595
101 1 0.124838 0.371775 -0.000118175
12 1 0.248208 0.0706846 0.0563623
156 1 0.75579 0.0657187 0.183929
47 1 0.431496 0.121749 0.064474
55 1 0.699127 0.129722 0.0594394
28 1 0.759404 0.0690669 0.05687
223 1 0.928376 0.257762 0.192312
63 1 0.92433 0.126282 0.0621454
35 1 0.0550843 0.13419 0.0698083
39 1 0.186248 0.1301 0.0584612
44 1 0.24639 0.19009 0.0486668
43 1 0.312123 0.124105 0.0532172
52 1 0.50244 0.188977 0.0676904
51 1 0.562685 0.130977 0.0559097
60 1 0.752344 0.19243 0.057109
64 1 0.868663 0.194027 0.0564771
36 1 0.993653 0.194224 0.0558914
187 1 0.814109 0.123527 0.185851
40 1 0.12345 0.18527 0.0566123
159 1 0.945506 -0.000888211 0.189136
1031 1 0.193004 0.494318 0.0562365
48 1 0.375599 0.189648 0.0602859
79 1 0.437265 0.245916 0.0637517
83 1 0.56451 0.248634 0.0630331
56 1 0.627585 0.184752 0.0578289
87 1 0.687738 0.252569 0.0665638
149 1 0.634009 0.00850964 0.121982
235 1 0.311541 0.369908 0.189222
1173 1 0.622923 0.49972 0.128245
67 1 0.0566201 0.246535 0.0668089
71 1 0.180229 0.253809 0.0655374
1175 1 0.692186 0.49067 0.19229
109 1 0.374684 0.381484 0.00285919
80 1 0.37299 0.313718 0.0542995
228 1 0.993611 0.437905 0.188491
88 1 0.628433 0.308421 0.065159
140 1 0.255248 0.0628069 0.184894
163 1 0.057007 0.128395 0.19133
95 1 0.931883 0.251018 0.0631349
68 1 0.998349 0.304726 0.0613965
248 1 0.633692 0.433474 0.181719
72 1 0.121912 0.309918 0.0640934
204 1 0.249505 0.31394 0.1844
76 1 0.247795 0.307046 0.0681092
107 1 0.310593 0.377556 0.0611495
111 1 0.447049 0.376446 0.0602708
84 1 0.505633 0.310232 0.0609358
200 1 0.126882 0.305819 0.187722
74 1 0.303093 0.311277 0.00437563
114 1 0.57183 0.441877 0.00630868
96 1 0.882066 0.315718 0.0657168
99 1 0.061629 0.377882 0.0574276
103 1 0.187294 0.366323 0.0633904
175 1 0.435264 0.128465 0.183526
116 1 0.506414 0.439363 0.0581087
115 1 0.566361 0.371235 0.0681505
120 1 0.625024 0.431016 0.073671
119 1 0.693913 0.37653 0.0678509
151 1 0.68843 0.00546955 0.184046
128 1 0.873413 0.447114 0.0642822
127 1 0.944955 0.365186 0.0599704
129 1 0.00776406 0.00488105 0.120184
78 1 0.442583 0.307852 0.00842285
153 1 0.755567 0.00281776 0.119578
108 1 0.244234 0.430883 0.0670035
131 1 0.0663451 0.00846214 0.187729
112 1 0.371367 0.436673 0.0603506
188 1 0.749083 0.185426 0.190047
219 1 0.819376 0.248394 0.183245
124 1 0.750626 0.442202 0.0629491
100 1 -0.0011724 0.437401 0.0555183
243 1 0.564167 0.373759 0.179559
139 1 0.318244 0.000971108 0.181748
138 1 0.318197 0.0654437 0.1264
142 1 0.435694 0.0672927 0.125226
146 1 0.566476 0.0691804 0.126626
154 1 0.812001 0.0683411 0.117074
137 1 0.249189 0.00794763 0.114511
30 1 0.932106 0.05874 0.00402121
130 1 0.0612666 0.0701753 0.125273
8 1 0.122786 0.0679521 0.0679021
134 1 0.183143 0.0682784 0.124102
169 1 0.250308 0.132994 0.115941
173 1 0.377963 0.129682 0.122598
150 1 0.696464 0.0633398 0.111219
185 1 0.747641 0.127195 0.125764
59 1 0.812591 0.131034 0.05828
158 1 0.944294 0.0603214 0.121226
161 1 0.995183 0.134761 0.125303
165 1 0.114701 0.130749 0.127624
170 1 0.309638 0.190353 0.121061
174 1 0.4332 0.189822 0.129102
177 1 0.493855 0.128864 0.126246
178 1 0.561658 0.185799 0.125558
181 1 0.627991 0.130912 0.122746
186 1 0.812933 0.186881 0.127838
162 1 0.056004 0.197309 0.133137
166 1 0.180056 0.183623 0.125216
75 1 0.314624 0.250689 0.0672163
205 1 0.370893 0.250529 0.128256
213 1 0.624603 0.240771 0.119295
182 1 0.693129 0.188015 0.120863
217 1 0.755853 0.253582 0.120322
91 1 0.81385 0.264423 0.0607633
190 1 0.932373 0.192338 0.12208
193 1 -0.00122112 0.254908 0.129466
197 1 0.123981 0.24508 0.129853
201 1 0.242435 0.245134 0.12588
206 1 0.443766 0.319168 0.119475
209 1 0.497407 0.25074 0.119831
92 1 0.761615 0.324312 0.060973
221 1 0.875749 0.257838 0.12567
222 1 0.938077 0.315247 0.128074
194 1 0.0628477 0.310554 0.124575
229 1 0.121722 0.376015 0.114972
198 1 0.178356 0.313844 0.126621
202 1 0.314845 0.311426 0.12752
237 1 0.371733 0.375594 0.125715
210 1 0.566376 0.306403 0.119659
214 1 0.689453 0.31418 0.126235
123 1 0.824967 0.37724 0.0689861
218 1 0.815321 0.314649 0.127431
253 1 0.879567 0.379957 0.126096
225 1 1.00056 0.37112 0.12833
104 1 0.136534 0.433822 0.0633509
233 1 0.244758 0.374165 0.126526
238 1 0.429618 0.433109 0.1255
241 1 0.502477 0.370506 0.126596
242 1 0.566925 0.435478 0.133046
245 1 0.628608 0.370945 0.126926
249 1 0.760804 0.380304 0.12302
250 1 0.816075 0.438042 0.126442
254 1 0.942071 0.444226 0.121944
226 1 0.0643144 0.441829 0.108371
230 1 0.185659 0.44153 0.131234
234 1 0.305177 0.430239 0.127419
1035 1 0.299597 0.493079 0.0652643
227 1 0.067594 0.365051 0.181317
246 1 0.691354 0.445624 0.120745
160 1 0.88295 0.0689993 0.182549
136 1 0.123464 0.0658954 0.195707
236 1 0.247649 0.435889 0.191844
232 1 0.12133 0.433302 0.186263
15 1 0.442039 0.00403028 0.0524459
224 1 0.875564 0.317481 0.1863
211 1 0.565263 0.247881 0.183683
247 1 0.687575 0.368953 0.18694
184 1 0.627306 0.187022 0.186338
240 1 0.374079 0.435936 0.186789
144 1 0.378625 0.0659144 0.18934
195 1 0.0662914 0.253169 0.192146
171 1 0.310699 0.134209 0.178087
179 1 0.56357 0.125106 0.187731
152 1 0.633525 0.0671657 0.187183
1155 1 0.0658067 0.496385 0.18769
255 1 0.93959 0.371879 0.194097
164 1 -0.00227893 0.194895 0.193828
244 1 0.491632 0.441861 0.180798
13 1 0.372218 -0.00120122 0.00111837
172 1 0.248237 0.18612 0.189934
239 1 0.435841 0.375484 0.184367
183 1 0.687032 0.1273 0.185186
189 1 0.869135 0.128223 0.121556
77 1 0.379946 0.248272 0.0016676
168 1 0.123929 0.186047 0.191588
192 1 0.874539 0.189072 0.18408
180 1 0.496495 0.193621 0.181152
167 1 0.185652 0.131713 0.193374
207 1 0.436347 0.254024 0.188025
6 1 0.179433 0.0655455 0.0033389
191 1 0.935253 0.135395 0.186148
125 1 0.878153 0.380287 0.00177062
251 1 0.810794 0.370744 0.188735
90 1 0.81828 0.32033 -0.0022767
132 1 0.00578502 0.0612352 0.18177
148 1 0.501418 0.0663679 0.190452
215 1 0.680152 0.249129 0.178755
199 1 0.183518 0.244484 0.186907
203 1 0.307597 0.247963 0.181435
196 1 0.996968 0.311719 0.195453
231 1 0.184703 0.375219 0.186112
157 1 0.878014 0.00171142 0.12417
176 1 0.366354 0.1909 0.184556
212 1 0.497925 0.306119 0.183344
208 1 0.376134 0.319233 0.186648
216 1 0.626572 0.309462 0.184547
220 1 0.750275 0.307711 0.180388
110 1 0.442252 0.442027 0.00263258
19 1 0.563707 0.00253068 0.0633969
86 1 0.693872 0.314361 -0.000243876
1167 1 0.435193 0.502513 0.186957
23 1 0.683471 0.0053339 0.0530717
1159 1 0.179582 0.497932 0.194465
2 1 0.0668622 0.0585781 -0.000358109
126 1 0.929264 0.441197 -0.00159863
118 1 0.683409 0.442555 0.00815053
7 1 0.186225 0.00892622 0.0592073
3 1 0.0652198 0.000883771 0.0651996
14 1 0.442007 0.0690746 0.000881155
135 1 0.189769 0.0109093 0.183952
145 1 0.503644 0.00202371 0.120942
1163 1 0.307695 0.497442 0.181472
1039 1 0.43589 0.498084 0.0659055
9 1 0.242835 0.00558201 0.00368269
33 1 1.00102 0.11962 0.0011171
46 1 0.441777 0.184544 -0.000654003
81 1 0.504411 0.249512 0.00351318
122 1 0.811222 0.429749 0.00798892
85 1 0.637358 0.253942 0.00110786
1171 1 0.561546 0.498338 0.188064
5 1 0.126879 -0.000805412 0.0049251
143 1 0.443491 0.00305457 0.180594
1165 1 0.369724 0.492549 0.119732
155 1 0.814316 0.00516478 0.180155
1177 1 0.758723 0.496056 0.121215
11 1 0.319355 0.00146925 0.0663854
105 1 0.24454 0.37392 0.00225755
17 1 0.507571 0.00490927 0.00411196
62 1 0.931056 0.190288 0.00473708
106 1 0.307204 0.439566 0.00023806
121 1 0.749642 0.378493 0.00326503
89 1 0.756742 0.255743 0.00501316
117 1 0.631212 0.372595 0.00199061
66 1 0.0561535 0.310187 0.00272457
258 1 0.0542176 0.0658874 0.248431
262 1 0.191952 0.0581698 0.253789
266 1 0.315906 0.0586422 0.24278
385 1 0.010711 0.00583585 0.380398
1289 1 0.245472 0.497019 0.253801
274 1 0.56872 0.0653234 0.242622
1299 1 0.563273 0.505018 0.30349
282 1 0.822513 0.0610968 0.245264
286 1 0.939314 0.0657923 0.25786
293 1 0.119555 0.126949 0.249891
297 1 0.255348 0.119453 0.243864
301 1 0.366918 0.123662 0.251767
270 1 0.435207 0.0663079 0.246671
305 1 0.504048 0.127419 0.249919
278 1 0.686285 0.0613672 0.244425
317 1 0.87968 0.132762 0.248203
289 1 1.00063 0.12573 0.252295
290 1 0.060091 0.191018 0.251795
298 1 0.309137 0.185084 0.253948
302 1 0.437227 0.191321 0.244836
309 1 0.624154 0.1264 0.248715
313 1 0.750352 0.119917 0.246047
325 1 0.126688 0.242053 0.250828
294 1 0.195987 0.183723 0.255623
329 1 0.255883 0.248541 0.247332
333 1 0.36297 0.246138 0.252302
306 1 0.565449 0.189018 0.246437
310 1 0.685628 0.184325 0.245385
314 1 0.807979 0.177773 0.246814
318 1 0.933372 0.203311 0.25457
321 1 0.994724 0.252829 0.258767
322 1 0.0574672 0.317318 0.250018
330 1 0.316463 0.310471 0.250465
337 1 0.512636 0.253164 0.247115
341 1 0.62401 0.250132 0.244848
345 1 0.745448 0.252099 0.246449
349 1 0.871615 0.252062 0.251251
350 1 0.933121 0.316302 0.256438
353 1 0.00382675 0.378005 0.250497
357 1 0.127352 0.373459 0.247685
326 1 0.18089 0.308182 0.249999
365 1 0.370892 0.375981 0.24544
334 1 0.443857 0.318369 0.246573
338 1 0.553099 0.322442 0.245177
342 1 0.68522 0.305213 0.239752
346 1 0.807805 0.314988 0.249629
361 1 0.245502 0.372035 0.248203
362 1 0.312188 0.438904 0.244901
366 1 0.438354 0.440764 0.245542
369 1 0.498754 0.382694 0.241106
370 1 0.561416 0.431535 0.23877
373 1 0.630321 0.374794 0.246517
377 1 0.741502 0.372348 0.25624
381 1 0.873681 0.381762 0.253263
382 1 0.933345 0.435439 0.245339
354 1 0.0643675 0.432061 0.251658
358 1 0.182303 0.433222 0.247029
1297 1 0.501698 0.495572 0.247371
437 1 0.248686 0.371109 0.374111
399 1 0.880682 0.00200772 0.378862
374 1 0.68631 0.432083 0.249937
378 1 0.805593 0.43088 0.248922
257 1 1.00025 0.00724638 0.24774
260 1 0.00613746 0.0602114 0.315014
440 1 0.432393 0.433064 0.37557
264 1 0.12053 0.0674992 0.306478
436 1 0.186137 0.42963 0.36946
268 1 0.249226 0.0552803 0.309838
448 1 0.940307 0.443106 0.377692
276 1 0.504646 0.065916 0.308742
397 1 0.750376 0.000708101 0.381017
284 1 0.753064 0.0695119 0.311317
288 1 0.873924 0.0649253 0.313085
291 1 0.0590583 0.125468 0.311199
295 1 0.184775 0.123593 0.310321
299 1 0.314468 0.108187 0.311573
272 1 0.382052 0.0619697 0.307537
280 1 0.621442 0.068191 0.308042
311 1 0.691136 0.129063 0.3046
315 1 0.814075 0.129118 0.311378
319 1 0.930233 0.128449 0.312429
296 1 0.128878 0.18597 0.309992
300 1 0.254767 0.189159 0.319792
303 1 0.435814 0.124324 0.310626
307 1 0.567035 0.126483 0.3064
316 1 0.744139 0.19671 0.307672
292 1 0.999819 0.183877 0.311701
304 1 0.374418 0.184706 0.316182
308 1 0.496394 0.188896 0.304079
312 1 0.619841 0.189222 0.314698
343 1 0.683201 0.249079 0.304832
347 1 0.815303 0.249218 0.320303
320 1 0.879328 0.195633 0.319576
351 1 0.926858 0.261286 0.314194
323 1 0.0621261 0.254774 0.310748
327 1 0.185412 0.250602 0.314689
331 1 0.316838 0.253713 0.32237
335 1 0.432129 0.254579 0.299811
339 1 0.56457 0.249136 0.315828
328 1 0.121929 0.311591 0.308013
332 1 0.249591 0.31339 0.311178
336 1 0.372936 0.312341 0.319457
340 1 0.493094 0.31147 0.309955
344 1 0.620571 0.312858 0.305607
348 1 0.749111 0.31072 0.311563
379 1 0.809688 0.379645 0.311351
352 1 0.870613 0.322433 0.312617
324 1 0.00378545 0.312285 0.313329
356 1 0.989941 0.439459 0.308316
355 1 0.0627202 0.370001 0.312826
360 1 0.122832 0.436118 0.315137
359 1 0.185824 0.367652 0.30716
363 1 0.306544 0.371521 0.305418
368 1 0.369868 0.432493 0.30416
367 1 0.433537 0.37084 0.313478
371 1 0.556471 0.379809 0.307307
375 1 0.689168 0.373876 0.321753
383 1 0.933331 0.381541 0.323022
435 1 0.121227 0.36738 0.372456
364 1 0.249026 0.428804 0.307714
447 1 0.869147 0.37894 0.380283
372 1 0.494917 0.443583 0.309557
376 1 0.620867 0.440256 0.307161
443 1 0.618371 0.384411 0.365482
380 1 0.746624 0.437593 0.310017
446 1 0.8131 0.445456 0.376009
384 1 0.874701 0.443228 0.322471
283 1 0.816614 0.0016785 0.303404
445 1 0.754098 0.380995 0.37767
434 1 0.0656819 0.440824 0.378849
444 1 0.683105 0.441304 0.366968
392 1 0.437227 0.0623522 0.374817
441 1 0.50059 0.36641 0.367747
394 1 0.559301 0.0566238 0.370124
396 1 0.689372 0.0694452 0.370432
438 1 0.311162 0.440913 0.371648
398 1 0.806511 0.0653933 0.379244
442 1 0.556098 0.445429 0.372868
401 1 0.00126006 0.119966 0.375436
386 1 0.0673864 0.064712 0.373665
388 1 0.185973 0.0610799 0.364498
405 1 0.250932 0.121696 0.368374
390 1 0.30116 0.0572042 0.37868
407 1 0.377775 0.119126 0.374277
411 1 0.62521 0.124655 0.369326
413 1 0.746871 0.133897 0.370437
415 1 0.872623 0.123619 0.373372
400 1 0.939395 0.0565917 0.371149
403 1 0.125624 0.124457 0.365998
404 1 0.184776 0.185996 0.372035
406 1 0.314448 0.183562 0.382429
408 1 0.432609 0.182852 0.377362
409 1 0.501595 0.127672 0.373019
414 1 0.815801 0.185215 0.376799
416 1 0.940299 0.179126 0.375673
402 1 0.0670857 0.188058 0.363411
419 1 0.128334 0.247778 0.377177
421 1 0.253204 0.250394 0.378563
410 1 0.55915 0.189833 0.376697
412 1 0.684317 0.186395 0.369316
429 1 0.753438 0.247297 0.374838
431 1 0.883821 0.241927 0.387997
423 1 0.374307 0.244061 0.381115
425 1 0.499494 0.250819 0.377728
427 1 0.625416 0.254396 0.373893
428 1 0.694097 0.306573 0.370368
432 1 0.938502 0.314882 0.381132
417 1 0.99174 0.246568 0.367189
418 1 0.0569706 0.306946 0.381742
420 1 0.185248 0.31164 0.373446
422 1 0.318507 0.30821 0.382461
439 1 0.368536 0.374731 0.375086
424 1 0.437414 0.30886 0.374432
426 1 0.564462 0.314076 0.365426
430 1 0.811578 0.313594 0.376191
433 1 0.00456278 0.379502 0.374344
1305 1 0.752605 0.498429 0.250459
269 1 0.384637 -0.00261311 0.246838
271 1 0.442265 -1.95677e-05 0.308154
395 1 0.625027 -0.000468758 0.3701
1413 1 0.245089 0.49411 0.375188
287 1 0.937037 -0.00184197 0.313071
259 1 0.0637773 0.00283936 0.315941
1293 1 0.369685 0.497882 0.243365
277 1 0.62912 0.000950964 0.243777
1283 1 0.0584507 0.495977 0.312399
281 1 0.757023 0.00303849 0.243978
1309 1 0.871283 0.493496 0.258994
391 1 0.372892 0.00774128 0.385634
1303 1 0.68157 0.497405 0.304101
1285 1 0.120716 0.495077 0.255787
1287 1 0.181259 0.500056 0.317298
279 1 0.681322 0.00478549 0.306805
1415 1 0.375048 0.497674 0.376565
261 1 0.127793 0.00119146 0.249571
1555 1 0.560492 0.495651 0.570133
456 1 0.377112 0.0614576 0.445213
458 1 0.501633 0.0643601 0.442314
1541 1 0.124136 0.498087 0.508141
628 1 0.495953 0.43474 0.568259
462 1 0.744787 0.0566245 0.447809
539 1 0.816214 -0.0017563 0.567143
1549 1 0.380648 0.498534 0.498302
450 1 0.00403891 0.0628977 0.437406
452 1 0.129686 0.060148 0.426939
454 1 0.242366 0.0560504 0.441698
471 1 0.441863 0.12178 0.441083
473 1 0.560292 0.129332 0.435643
460 1 0.62035 0.0624445 0.429391
475 1 0.683283 0.117064 0.438903
464 1 0.87034 0.0676718 0.440541
465 1 0.0693273 0.131308 0.42825
467 1 0.184228 0.123573 0.43564
469 1 0.309767 0.117125 0.437901
477 1 0.810982 0.1242 0.435958
479 1 0.936712 0.118282 0.437513
481 1 0.0625835 0.240244 0.427138
468 1 0.129485 0.185901 0.441872
483 1 0.190109 0.260438 0.437715
470 1 0.244327 0.191849 0.433319
485 1 0.311131 0.245299 0.440915
472 1 0.379172 0.184022 0.444131
487 1 0.438835 0.24725 0.435791
474 1 0.498413 0.187479 0.445372
476 1 0.627691 0.194127 0.430905
478 1 0.752077 0.184318 0.439002
493 1 0.810626 0.250394 0.437787
480 1 0.882401 0.178674 0.440604
466 1 0.00269341 0.180612 0.431828
489 1 0.563867 0.250983 0.438043
491 1 0.686743 0.255818 0.434524
494 1 0.749413 0.316287 0.436069
495 1 0.949172 0.254894 0.441702
497 1 0.0678219 0.372001 0.439744
484 1 0.123336 0.306935 0.430648
486 1 0.251875 0.313143 0.4356
488 1 0.376974 0.312762 0.433651
490 1 0.499895 0.311207 0.44805
492 1 0.621614 0.314451 0.433815
507 1 0.686699 0.383747 0.431387
509 1 0.812542 0.372742 0.437981
496 1 0.874065 0.309983 0.436361
511 1 0.94241 0.374482 0.436201
482 1 0.00367683 0.312997 0.443433
499 1 0.188198 0.366367 0.435609
501 1 0.310867 0.378236 0.435337
504 1 0.372795 0.43692 0.431122
503 1 0.449321 0.377717 0.430746
505 1 0.560959 0.381732 0.430278
508 1 0.618193 0.442681 0.436435
510 1 0.751 0.445331 0.429977
512 1 0.866312 0.43811 0.440329
498 1 0.996914 0.443615 0.435127
500 1 0.131718 0.431099 0.432399
502 1 0.246565 0.43427 0.435334
624 1 0.382768 0.434145 0.558214
1539 1 0.0584275 0.493163 0.568688
506 1 0.506722 0.44216 0.440093
612 1 0.996975 0.431261 0.558535
611 1 0.0623273 0.375323 0.562454
620 1 0.254565 0.434909 0.576402
635 1 0.812471 0.374387 0.570316
632 1 0.624304 0.440053 0.563015
522 1 0.314685 0.0615175 0.497855
526 1 0.441356 0.0545367 0.507198
530 1 0.564502 0.0648569 0.498719
1547 1 0.3149 0.494896 0.566975
639 1 0.933314 0.376741 0.56965
542 1 0.945354 0.0588668 0.502521
514 1 0.0676667 0.0613317 0.506627
518 1 0.178111 0.0558006 0.500297
553 1 0.244197 0.130585 0.490363
557 1 0.375139 0.125756 0.497961
561 1 0.504541 0.126477 0.501916
565 1 0.631405 0.118863 0.506305
534 1 0.685854 0.0576961 0.505732
569 1 0.758468 0.118849 0.499851
538 1 0.821434 0.0551172 0.504926
546 1 0.0698259 0.184487 0.510471
549 1 0.123459 0.124936 0.496354
554 1 0.314601 0.188386 0.501589
562 1 0.56215 0.188914 0.504532
566 1 0.686597 0.192438 0.498127
573 1 0.870271 0.12706 0.509999
545 1 1.00186 0.128138 0.501281
550 1 0.188444 0.202499 0.498705
558 1 0.437085 0.181651 0.504039
597 1 0.615818 0.248497 0.497857
570 1 0.81695 0.197896 0.497654
605 1 0.883272 0.254133 0.498984
574 1 0.942278 0.186458 0.500214
581 1 0.130339 0.259461 0.498486
585 1 0.258246 0.249464 0.502589
589 1 0.375047 0.248281 0.503027
593 1 0.501748 0.250017 0.505253
594 1 0.562305 0.321154 0.498707
598 1 0.682683 0.322201 0.487997
601 1 0.74526 0.25756 0.500545
602 1 0.811627 0.314655 0.512196
577 1 0.00812906 0.249757 0.498406
578 1 0.0661604 0.316262 0.499912
613 1 0.129173 0.365681 0.504002
582 1 0.194608 0.312563 0.507559
586 1 0.313712 0.312988 0.493207
621 1 0.376408 0.373209 0.491289
590 1 0.436272 0.304613 0.502383
625 1 0.49753 0.374063 0.49926
629 1 0.624163 0.377939 0.498912
633 1 0.743951 0.3763 0.497172
637 1 0.87648 0.368867 0.506914
606 1 0.941949 0.310788 0.509951
609 1 0.998586 0.376392 0.498323
610 1 0.0670115 0.434135 0.500531
617 1 0.255865 0.369843 0.505149
618 1 0.307648 0.437885 0.490084
622 1 0.436837 0.433409 0.497866
630 1 0.683023 0.436472 0.495605
638 1 0.935931 0.437508 0.504474
614 1 0.186012 0.427907 0.494429
619 1 0.315477 0.382435 0.561612
636 1 0.746286 0.436612 0.557552
626 1 0.564968 0.43845 0.497783
634 1 0.806201 0.430735 0.499963
640 1 0.871501 0.433737 0.5596
528 1 0.375349 0.0670893 0.559211
616 1 0.129862 0.4309 0.556445
532 1 0.499021 0.0569081 0.571462
536 1 0.625049 0.0573636 0.56396
540 1 0.755863 0.0633313 0.561638
520 1 0.124986 0.0620104 0.562518
551 1 0.186194 0.125085 0.568395
524 1 0.241318 0.0648105 0.554985
559 1 0.442739 0.12314 0.563921
567 1 0.699914 0.131717 0.561487
544 1 0.875477 0.055421 0.56664
575 1 0.938259 0.120799 0.561323
516 1 0.998532 0.0678119 0.564445
547 1 0.0691841 0.121143 0.566312
555 1 0.313032 0.123455 0.561256
564 1 0.501007 0.17956 0.562998
563 1 0.570436 0.121091 0.562062
568 1 0.623829 0.188187 0.561101
571 1 0.812069 0.124795 0.569402
552 1 0.129661 0.190755 0.570186
556 1 0.245346 0.188454 0.564841
560 1 0.381913 0.183412 0.5614
595 1 0.56303 0.248658 0.562214
599 1 0.683335 0.247168 0.564772
572 1 0.754635 0.191976 0.549363
576 1 0.872437 0.18818 0.569309
548 1 0.999373 0.185095 0.563851
579 1 0.0712125 0.260681 0.557327
583 1 0.187889 0.252563 0.564957
588 1 0.256326 0.317602 0.577174
587 1 0.315727 0.249386 0.566882
591 1 0.442266 0.248495 0.56736
600 1 0.622447 0.317 0.555892
603 1 0.81618 0.247 0.568743
608 1 0.874946 0.309467 0.567647
607 1 0.933007 0.247014 0.566036
580 1 0.00690347 0.3136 0.558228
584 1 0.130566 0.313677 0.572037
615 1 0.19202 0.37711 0.566858
592 1 0.378678 0.304305 0.563175
623 1 0.438638 0.373526 0.55587
596 1 0.498787 0.318663 0.561337
627 1 0.566194 0.37765 0.5663
631 1 0.68237 0.374092 0.557282
604 1 0.741641 0.319485 0.558031
541 1 0.885861 0.000906345 0.499967
1551 1 0.441753 0.496558 0.555415
521 1 0.247479 0.000181431 0.501379
525 1 0.380758 -0.00127734 0.503801
529 1 0.506978 0.00501432 0.508943
455 1 0.443889 0.00373746 0.43499
1561 1 0.741655 0.496847 0.49766
1545 1 0.25063 0.494221 0.498701
1557 1 0.622293 0.500252 0.50094
1477 1 0.310659 0.49499 0.432623
1475 1 0.189174 0.488918 0.438144
513 1 0.00567858 -0.00166383 0.498463
1479 1 0.438088 0.492871 0.438813
1543 1 0.191771 0.490317 0.55746
1563 1 0.811414 0.497027 0.564579
1537 1 0.0049587 0.493706 0.50017
1483 1 0.683334 0.496945 0.428254
1553 1 0.50472 0.496708 0.500359
515 1 0.0617788 0.00218342 0.564786
642 1 0.066208 0.065347 0.628176
646 1 0.175943 0.0553732 0.624386
650 1 0.310913 0.0560829 0.615565
783 1 0.868643 0.00308722 0.746777
654 1 0.443826 0.0585927 0.6328
658 1 0.567929 0.0612226 0.624851
662 1 0.686159 0.0612152 0.617455
670 1 0.937117 0.065048 0.629983
673 1 0.00227877 0.12067 0.625837
685 1 0.376336 0.121951 0.626511
689 1 0.503044 0.120649 0.625154
666 1 0.806805 0.0615309 0.624607
674 1 0.0565941 0.181873 0.623353
677 1 0.125041 0.125396 0.62864
681 1 0.248784 0.118359 0.622705
686 1 0.433635 0.184602 0.627769
693 1 0.627193 0.127262 0.61846
694 1 0.682934 0.190553 0.628827
697 1 0.750435 0.125231 0.626482
701 1 0.873894 0.128312 0.626806
705 1 0.998066 0.247012 0.623537
709 1 0.130966 0.251038 0.629266
678 1 0.187148 0.186982 0.626648
682 1 0.311827 0.183211 0.616435
717 1 0.376332 0.246755 0.630859
721 1 0.494704 0.241954 0.628661
690 1 0.554636 0.184581 0.624238
698 1 0.811188 0.183141 0.630243
733 1 0.874456 0.25058 0.623949
702 1 0.935659 0.181191 0.619831
706 1 0.0686619 0.308457 0.624038
713 1 0.26101 0.249472 0.631277
714 1 0.317833 0.310951 0.627223
725 1 0.616932 0.250541 0.625148
729 1 0.744498 0.257069 0.622774
737 1 0.00112943 0.376159 0.622548
741 1 0.126898 0.370461 0.631316
710 1 0.192015 0.319537 0.637513
745 1 0.262427 0.37372 0.63808
749 1 0.375477 0.371333 0.618414
718 1 0.449134 0.310196 0.631204
722 1 0.558228 0.318851 0.624574
757 1 0.626599 0.376152 0.623541
726 1 0.686057 0.312593 0.615412
730 1 0.807351 0.312573 0.622874
734 1 0.932293 0.312493 0.623345
738 1 0.0587432 0.433664 0.626897
742 1 0.186512 0.435444 0.632915
750 1 0.429512 0.430018 0.625256
753 1 0.502905 0.377856 0.629358
754 1 0.569289 0.436431 0.626386
758 1 0.680992 0.436749 0.630903
761 1 0.742592 0.373288 0.6222
762 1 0.807438 0.435413 0.626902
765 1 0.873238 0.376452 0.624059
766 1 0.937878 0.435873 0.630051
647 1 0.181746 -0.000343198 0.693249
1665 1 0.995888 0.497985 0.62715
820 1 0.179979 0.438183 0.750588
746 1 0.325824 0.431905 0.626167
1689 1 0.74237 0.496729 0.626671
643 1 0.0649612 0.00904191 0.688899
818 1 0.0646887 0.435456 0.750459
822 1 0.308873 0.430037 0.750346
1675 1 0.314757 0.497121 0.693304
771 1 0.121621 0.00527236 0.752809
656 1 0.370943 0.0562119 0.685164
660 1 0.506673 0.0612589 0.683392
664 1 0.634225 0.0592852 0.682828
672 1 0.875308 0.0626796 0.687992
648 1 0.126617 0.0643486 0.689649
652 1 0.242838 0.0566423 0.682789
687 1 0.434352 0.122044 0.693429
691 1 0.564171 0.125935 0.68214
668 1 0.751108 0.0638808 0.686479
699 1 0.811923 0.124261 0.688808
644 1 0.99819 0.0621665 0.690066
676 1 0.993862 0.190469 0.687114
675 1 0.057228 0.135699 0.692742
679 1 0.197455 0.126581 0.68553
683 1 0.310729 0.117456 0.683801
688 1 0.372097 0.177554 0.689
692 1 0.495522 0.17871 0.682727
695 1 0.687563 0.120673 0.680061
703 1 0.937362 0.125943 0.684244
707 1 0.0624949 0.244279 0.683445
680 1 0.127673 0.181461 0.688074
684 1 0.253495 0.18505 0.685109
715 1 0.310184 0.245795 0.694878
719 1 0.436077 0.246954 0.688538
696 1 0.624184 0.180372 0.6896
700 1 0.751356 0.190395 0.699656
704 1 0.877663 0.193552 0.68003
735 1 0.937465 0.256727 0.685249
712 1 0.123776 0.304209 0.688637
711 1 0.188517 0.245429 0.690621
716 1 0.253661 0.308247 0.689559
720 1 0.372597 0.299628 0.694987
724 1 0.5031 0.317045 0.69252
723 1 0.556454 0.255044 0.684571
727 1 0.681448 0.252215 0.688489
731 1 0.814778 0.255876 0.683361
708 1 0.00842668 0.309125 0.681031
751 1 0.438434 0.370493 0.687894
728 1 0.624161 0.311754 0.691609
759 1 0.68916 0.374301 0.68925
732 1 0.75118 0.313918 0.685444
763 1 0.807872 0.371813 0.694432
736 1 0.873571 0.313117 0.683504
767 1 0.939279 0.367607 0.685915
740 1 0.000451144 0.432064 0.688254
739 1 0.0644719 0.374319 0.686175
743 1 0.187856 0.377265 0.698071
747 1 0.323533 0.374016 0.694274
756 1 0.500471 0.430753 0.694308
755 1 0.560988 0.37256 0.685514
760 1 0.624535 0.432066 0.694194
764 1 0.746459 0.437184 0.6868
827 1 0.626044 0.374946 0.753596
744 1 0.12131 0.44032 0.688565
748 1 0.255759 0.433101 0.690078
752 1 0.380851 0.431434 0.688695
826 1 0.561952 0.434569 0.75428
821 1 0.247493 0.374405 0.758125
832 1 0.932123 0.440463 0.748943
768 1 0.868211 0.437883 0.685242
824 1 0.43675 0.425267 0.752102
828 1 0.691006 0.436439 0.746865
772 1 0.186682 0.0603772 0.753937
776 1 0.442709 0.0553319 0.743008
780 1 0.691563 0.0644136 0.748785
830 1 0.816822 0.441503 0.753566
782 1 0.80903 0.0601697 0.75475
784 1 0.93287 0.0639898 0.74896
770 1 0.0579277 0.072518 0.745337
774 1 0.308687 0.0608604 0.74386
791 1 0.374299 0.114219 0.74956
778 1 0.563755 0.0601752 0.735722
797 1 0.750332 0.121013 0.747599
785 1 0.992382 0.126839 0.749326
786 1 0.0586591 0.187847 0.749311
787 1 0.123494 0.12188 0.754884
788 1 0.188784 0.176062 0.751189
789 1 0.255306 0.121937 0.747226
790 1 0.311847 0.186305 0.750524
792 1 0.434093 0.191643 0.749625
793 1 0.505332 0.122407 0.743406
795 1 0.628839 0.123423 0.746033
799 1 0.875072 0.12318 0.748688
800 1 0.942002 0.198691 0.751623
805 1 0.246774 0.24087 0.751176
809 1 0.495158 0.246371 0.754931
794 1 0.565086 0.196373 0.756274
796 1 0.682636 0.184194 0.751626
798 1 0.818999 0.187168 0.745711
815 1 0.871292 0.249135 0.745819
801 1 0.00892236 0.25426 0.748382
803 1 0.122719 0.241311 0.747156
806 1 0.317304 0.315649 0.7573
807 1 0.373325 0.24791 0.762362
808 1 0.431465 0.307919 0.750865
810 1 0.571447 0.314139 0.755626
811 1 0.626539 0.252011 0.751148
812 1 0.690052 0.314771 0.747591
813 1 0.755005 0.256041 0.755012
814 1 0.812035 0.310409 0.753256
816 1 0.94881 0.313835 0.753918
817 1 0.00417739 0.376564 0.766174
802 1 0.0663209 0.307421 0.74813
804 1 0.18869 0.309008 0.750416
823 1 0.376658 0.371895 0.756316
825 1 0.501632 0.372589 0.758794
829 1 0.752285 0.381243 0.754998
831 1 0.873694 0.372889 0.750729
819 1 0.125904 0.364582 0.750296
1677 1 0.375731 0.495937 0.630319
1685 1 0.626878 0.500905 0.620928
1801 1 0.50004 0.492102 0.753765
1679 1 0.438006 0.498895 0.689813
1683 1 0.565956 0.49575 0.692002
1797 1 0.252482 0.49169 0.74773
1799 1 0.379343 0.494262 0.757511
1681 1 0.48877 0.493283 0.625458
1669 1 0.127462 0.491782 0.623143
649 1 0.247701 0.00409503 0.616613
1695 1 0.939081 0.502629 0.689396
665 1 0.749261 0.00575173 0.621716
653 1 0.381213 0.00545236 0.620173
1793 1 0.00607459 0.494746 0.747148
1803 1 0.630326 0.498764 0.744829
1667 1 0.0605821 0.498633 0.678079
1671 1 0.185379 0.497101 0.690304
1691 1 0.808648 0.497876 0.691704
671 1 0.936361 -0.00049396 0.686627
1673 1 0.256623 0.496936 0.631735
775 1 0.368965 0.00266517 0.751219
641 1 -0.00121892 0.00605745 0.624469
842 1 0.505033 0.053074 0.803562
874 1 0.500093 0.310487 0.821016
899 1 0.0587694 -0.000532934 0.937479
877 1 0.817326 0.246537 0.809068
94 1 0.934715 0.319271 0.993154
848 1 0.876292 0.064733 0.812254
868 1 0.127452 0.309812 0.814381
834 1 0.995509 0.0513886 0.811798
849 1 0.0524149 0.1222 0.809357
41 1 0.249652 0.124272 0.991198
875 1 0.691571 0.24787 0.807777
1927 1 0.180904 0.498942 0.938656
844 1 0.626994 0.0636552 0.811172
29 1 0.871647 0.00186431 0.999851
890 1 0.493448 0.432286 0.826429
881 1 0.0633497 0.371151 0.820877
851 1 0.190763 0.12864 0.815666
853 1 0.311718 0.118966 0.820813
858 1 0.495853 0.183026 0.810374
857 1 0.565959 0.12635 0.804667
1923 1 0.0659836 0.500368 0.935457
953 1 0.754065 0.125596 0.86869
861 1 0.815179 0.130088 0.805783
873 1 0.56097 0.255145 0.818736
836 1 0.12577 0.0635895 0.81703
886 1 0.250163 0.433389 0.814983
852 1 0.120672 0.183349 0.813931
838 1 0.250156 0.0696151 0.820403
859 1 0.686421 0.124624 0.813667
871 1 0.440008 0.252739 0.816833
846 1 0.746288 0.0655937 0.811534
860 1 0.625826 0.199658 0.81437
850 1 1.00088 0.18643 0.810968
872 1 0.377712 0.317221 0.818641
867 1 0.184879 0.240534 0.807389
854 1 0.252682 0.187911 0.814304
840 1 0.36912 0.0573293 0.81576
892 1 0.629255 0.443606 0.805468
865 1 0.0613029 0.244136 0.808187
18 1 0.564969 0.0643347 1.00083
866 1 0.00954198 0.309918 0.817881
870 1 0.247527 0.311593 0.8101
878 1 0.753923 0.317325 0.810936
887 1 0.437898 0.375941 0.831147
880 1 0.874222 0.303171 0.807881
895 1 0.933814 0.383953 0.81152
893 1 0.82123 0.377462 0.816139
883 1 0.189244 0.375087 0.813992
835 1 0.186814 0.00382576 0.815469
1933 1 0.373188 0.49872 0.884774
885 1 0.310925 0.374585 0.816281
901 1 0.127698 0.00183392 0.877939
863 1 0.940809 0.128645 0.817949
93 1 0.874775 0.251855 0.99641
1861 1 0.309678 0.498008 0.818266
894 1 0.75632 0.447788 0.805446
896 1 0.87541 0.446932 0.807217
882 1 0.992079 0.442527 0.814867
855 1 0.44071 0.118808 0.810623
1925 1 0.128972 0.49912 0.871632
996 1 0.00159067 0.442398 0.938452
843 1 0.684542 0.00481138 0.808595
1937 1 0.499787 0.496914 0.875472
837 1 0.302192 0.00411316 0.810504
864 1 0.879832 0.187318 0.808538
904 1 0.123547 0.0594783 0.937175
879 1 0.945107 0.256108 0.817217
58 1 0.813239 0.195447 0.997563
910 1 0.446296 0.0632613 0.872957
914 1 0.565762 0.0609149 0.866355
839 1 0.439059 0.00798031 0.814065
833 1 0.0650415 0.00511143 0.815639
926 1 0.940981 0.0645972 0.868057