LAMMPS (15 Sep 2022)
OMP_NUM_THREADS environment is not set. Defaulting to 1 thread. (src/comm.cpp:98)
  using 1 OpenMP thread(s) per MPI task
# 2d WCA system, random initial configuration

#variable density equal 0.5
variable initial_temperature equal 3.0
variable final_temperature equal 0.1
variable dt equal 0.01
variable tau equal 100*${dt}
variable tau equal 100*0.01
variable thermo_time equal 50000*${dt}
variable thermo_time equal 50000*0.01
variable equil_steps equal 50000
variable run_steps equal 100000

units           lj
atom_style      atomic
dimension       3

lattice         fcc ${density}
lattice         fcc 1.3
Lattice spacing in x,y,z = 1.4544726 1.4544726 1.4544726
region          box block 0 8 0 8 0 8
# number of atom types
create_box      1 box
Created orthogonal box = (0 0 0) to (11.635781 11.635781 11.635781)
  1 by 2 by 5 MPI processor grid
create_atoms    1 box
Created 2048 atoms
  using lattice units in orthogonal box = (0 0 0) to (11.635781 11.635781 11.635781)
  create_atoms CPU = 0.000 seconds
mass 1 1.0

velocity all create ${initial_temperature} 12345
velocity all create 3 12345

pair_style      lj/cut 1.0
#type_1 type_2 epsilon sigma cutoff
pair_coeff      1 1 10.0 0.89089871814 1.0
pair_modify shift yes

timestep ${dt}
timestep 0.01
thermo ${thermo_time}
thermo 500

fix 1 all nvt temp ${initial_temperature} ${initial_temperature} ${tau}
fix 1 all nvt temp 3 ${initial_temperature} ${tau}
fix 1 all nvt temp 3 3 ${tau}
fix 1 all nvt temp 3 3 1
run ${equil_steps}
run 50000
Generated 0 of 0 mixed pair_coeff terms from geometric mixing rule
Neighbor list info ...
  update: every = 1 steps, delay = 0 steps, check = yes
  max neighbors/atom: 2000, page size: 100000
  master list distance cutoff = 1.3
  ghost atom cutoff = 1.3
  binsize = 0.65, bins = 18 18 18
  1 neighbor lists, perpetual/occasional/extra = 1 0 0
  (1) pair lj/cut, perpetual
      attributes: half, newton on
      pair build: half/bin/atomonly/newton
      stencil: half/bin/3d
      bin: standard
Per MPI rank memory allocation (min/avg/max) = 3.081 | 3.087 | 3.089 Mbytes
   Step          Temp          E_pair         E_mol          TotEng         Press     
         0   3              0              0              4.4978027      3.8980957    
       500   3.0931957      2.8847987      0              7.5223267      51.632757    
      1000   2.9670345      2.7878454      0              7.2362241      50.352734    
      1500   2.9647696      2.7404727      0              7.1854556      49.957277    
      2000   2.9380646      2.8009971      0              7.2059421      50.271972    
      2500   3.0114404      2.7699445      0              7.2848995      50.155004    
      3000   3.038532       2.7836736      0              7.339246       49.974193    
      3500   2.9173349      2.8139963      0              7.1878619      50.333093    
      4000   3.0298448      2.900543       0              7.443091       51.364115    
      4500   3.0016128      2.7320937      0              7.2323144      49.666073    
      5000   3.0365736      2.9553781      0              7.5080144      52.24688     
      5500   2.9428525      2.8968775      0              7.3090008      51.270557    
      6000   3.0703706      3.0267471      0              7.6300542      53.142078    
      6500   3.0426403      2.7568015      0              7.3185335      50.216081    
      7000   3.0297235      2.9181076      0              7.4604738      51.776053    
      7500   2.9701252      2.895549       0              7.3485614      51.835422    
      8000   2.8992753      2.7015769      0              7.0483664      49.129225    
      8500   3.0997502      2.7938925      0              7.4412475      50.338062    
      9000   3.0103378      2.8863845      0              7.3996864      51.138926    
      9500   2.9996189      2.9058144      0              7.4030458      51.474132    
     10000   3.0440958      2.834029       0              7.3979431      50.774405    
     10500   3.029883       2.8487879      0              7.3913932      51.151021    
     11000   3.0173349      2.8654192      0              7.3892116      51.235424    
     11500   2.984596       2.6373431      0              7.1120511      48.829637    
     12000   2.9838645      2.876361       0              7.3499723      51.059978    
     12500   3.0021882      2.863801       0              7.3648845      51.173209    
     13000   3.0145798      2.8173479      0              7.3370097      50.848654    
     13500   2.9362846      2.764222       0              7.1664982      50.014771    
     14000   2.9450709      2.9828484      0              7.3982977      52.277848    
     14500   2.9223879      2.7459906      0              7.1274321      49.409799    
     15000   2.9768394      2.9210274      0              7.3841061      51.568603    
     15500   2.9591961      2.8197145      0              7.2563412      50.535135    
     16000   3.0316564      2.8347654      0              7.3800296      50.576295    
     16500   2.9640692      2.8556421      0              7.2995749      51.012447    
     17000   3.0132721      2.8207875      0              7.3384887      50.515431    
     17500   2.9998562      2.7935256      0              7.2911127      50.107324    
     18000   3.0008465      2.7927821      0              7.291854       50.469727    
     18500   2.9679986      2.8737452      0              7.3235694      50.805047    
     19000   3.033334       2.7510311      0              7.2988105      49.784994    
     19500   3.0006025      2.8098623      0              7.3085683      50.529822    
     20000   3.0366834      2.8093249      0              7.3621259      50.746962    
     20500   3.0035507      2.8160901      0              7.3192162      50.067641    
     21000   3.0635697      2.7390508      0              7.3321616      49.960479    
     21500   3.0314671      2.9507686      0              7.495749       52.589486    
     22000   2.9144887      2.872915       0              7.2425134      51.224532    
     22500   3.0847347      2.7323549      0              7.3571977      49.694881    
     23000   3.051022       2.8237573      0              7.3980557      50.75604     
     23500   2.9208035      3.0248307      0              7.4038966      52.729136    
     24000   2.9912367      2.83261        0              7.3172742      50.646654    
     24500   3.0698358      2.7974287      0              7.399934       50.469799    
     25000   2.964185       2.8376489      0              7.2817555      50.824277    
     25500   3.0010355      2.8325356      0              7.3318908      50.706436    
     26000   2.9411609      2.8810549      0              7.2906421      51.205507    
     26500   3.1010034      2.72071        0              7.3699439      49.820449    
     27000   2.9157901      2.854109       0              7.2256585      50.991459    
     27500   3.027083       2.8511114      0              7.3895189      51.145152    
     28000   2.9970691      2.7686833      0              7.2620918      50.236688    
     28500   2.9868603      3.030598       0              7.5087009      53.161926    
     29000   3.0239618      2.7810313      0              7.3147592      49.925706    
     29500   2.9920297      2.8275113      0              7.3133644      50.89769     
     30000   2.9485655      2.8081221      0              7.2288107      50.561354    
     30500   2.9947765      2.8745511      0              7.3645223      51.488198    
     31000   2.9784073      2.8764191      0              7.3418486      51.089802    
     31500   3.0034231      2.8699183      0              7.3728531      51.251517    
     32000   3.0351544      2.7766504      0              7.327159       50.132551    
     32500   2.9403124      2.8453244      0              7.2536395      50.636273    
     33000   2.9431974      2.9206199      0              7.3332603      51.739205    
     33500   3.0105736      2.9727792      0              7.4864347      52.424941    
     34000   2.8892564      2.9660239      0              7.2977924      52.311125    
     34500   3.0959448      2.7638245      0              7.4054741      50.332258    
     35000   3.0166035      2.84193        0              7.3646258      50.946893    
     35500   3.01643        2.8851661      0              7.4076019      51.393356    
     36000   3.0132818      2.8787579      0              7.3964737      51.206047    
     36500   3.048206       2.8474474      0              7.4175238      50.883352    
     37000   3.0440737      2.8089192      0              7.3728001      50.587581    
     37500   3.0681199      2.7810961      0              7.3810289      50.255889    
     38000   3.0146628      2.9029256      0              7.4227119      51.896638    
     38500   3.0172427      2.8293664      0              7.3530206      50.699985    
     39000   2.9615268      2.9209531      0              7.3610742      51.892489    
     39500   3.0423913      2.8100891      0              7.3714477      51.038196    
     40000   2.9955769      2.8881404      0              7.3793118      51.341992    
     40500   3.0302232      2.714625       0              7.2577404      49.589905    
     41000   3.0191493      2.8232539      0              7.3497665      50.592286    
     41500   3.040738       2.8241788      0              7.3830587      50.685204    
     42000   2.9859859      2.9432349      0              7.4200268      51.746944    
     42500   2.983713       2.7908785      0              7.2642626      50.562466    
     43000   3.011262       2.7816858      0              7.2963733      50.296434    
     43500   3.0294881      2.8094302      0              7.3514434      50.361071    
     44000   3.0530004      2.9395678      0              7.5168323      51.930215    
     44500   3.007873       2.732753       0              7.2423594      49.393572    
     45000   3.1025671      2.8505151      0              7.5020933      51.130349    
     45500   2.9545884      2.8735243      0              7.303243       51.351671    
     46000   3.0503625      2.9279759      0              7.5012855      51.948472    
     46500   3.0125713      2.7513364      0              7.2679869      49.682369    
     47000   3.0747982      2.8572361      0              7.4671813      51.071438    
     47500   3.0645471      2.7985922      0              7.3931683      50.799979    
     48000   3.0514596      2.7269038      0              7.3018583      49.529133    
     48500   2.9995662      2.8070859      0              7.3042382      50.346332    
     49000   3.105118       2.9113581      0              7.5667608      52.130323    
     49500   3.0153098      2.7793379      0              7.3000941      50.147792    
     50000   3.0477754      3.0470169      0              7.6164477      53.384614    
Loop time of 4.39796 on 10 procs for 50000 steps with 2048 atoms

Performance: 9822730.628 tau/day, 11368.901 timesteps/s, 23.284 Matom-step/s
99.6% CPU use with 10 MPI tasks x 1 OpenMP threads

MPI task timing breakdown:
Section |  min time  |  avg time  |  max time  |%varavg| %total
---------------------------------------------------------------
Pair    | 0.64705    | 0.71309    | 0.81331    |   7.7 | 16.21
Neigh   | 1.4778     | 1.7574     | 2.2624     |  23.2 | 39.96
Comm    | 0.93646    | 1.3015     | 1.7998     |  25.7 | 29.59
Output  | 0.0013782  | 0.0019343  | 0.006742   |   3.6 |  0.04
Modify  | 0.21185    | 0.46133    | 1.0329     |  45.4 | 10.49
Other   |            | 0.1628     |            |       |  3.70

Nlocal:          204.8 ave         232 max         187 min
Histogram: 3 1 1 1 0 1 1 0 1 1
Nghost:          505.5 ave         547 max         446 min
Histogram: 3 0 0 1 0 0 0 0 2 4
Neighs:         1254.5 ave        1413 max        1149 min
Histogram: 3 1 1 1 0 1 0 1 1 1

Total # of neighbors = 12545
Ave neighs/atom = 6.1254883
Neighbor list builds = 20058
Dangerous builds = 1

unfix 1
dump           1 all atom ${run_steps} 3dWCA_T${final_temperature}_d${density}_N${run_steps}.lammpstrj
dump           1 all atom 100000 3dWCA_T${final_temperature}_d${density}_N${run_steps}.lammpstrj
dump           1 all atom 100000 3dWCA_T0.1_d${density}_N${run_steps}.lammpstrj
dump           1 all atom 100000 3dWCA_T0.1_d1.3_N${run_steps}.lammpstrj
dump           1 all atom 100000 3dWCA_T0.1_d1.3_N100000.lammpstrj
dump           2 all dcd ${thermo_time} 3dWCA_T${final_temperature}_d${density}_N${run_steps}.dcd
dump           2 all dcd 500 3dWCA_T${final_temperature}_d${density}_N${run_steps}.dcd
dump           2 all dcd 500 3dWCA_T0.1_d${density}_N${run_steps}.dcd
dump           2 all dcd 500 3dWCA_T0.1_d1.3_N${run_steps}.dcd
dump           2 all dcd 500 3dWCA_T0.1_d1.3_N100000.dcd
fix 1 all nvt temp ${initial_temperature} ${final_temperature} ${tau}
fix 1 all nvt temp 3 ${final_temperature} ${tau}
fix 1 all nvt temp 3 0.1 ${tau}
fix 1 all nvt temp 3 0.1 1

run ${run_steps}
run 100000
Generated 0 of 0 mixed pair_coeff terms from geometric mixing rule
Per MPI rank memory allocation (min/avg/max) = 3.139 | 3.141 | 3.142 Mbytes
   Step          Temp          E_pair         E_mol          TotEng         Press     
     50000   3.0477754      3.0470169      0              7.6164477      53.384614    
     50500   2.9445365      2.8398963      0              7.2545444      50.857134    
     51000   3.0193105      2.8379634      0              7.3647177      50.869545    
     51500   2.9480825      2.7811645      0              7.2011289      50.280014    
     52000   2.896444       2.712123       0              7.0546675      49.337697    
     52500   2.93487        2.8332132      0              7.2333686      50.730418    
     53000   2.9116907      2.8438881      0              7.2092915      51.09058     
     53500   2.846116       2.6736039      0              6.9406934      48.554373    
     54000   2.898375       2.6717652      0              7.0172048      48.347221    
     54500   2.8631627      2.6904606      0              6.9831077      48.750096    
     55000   2.7901212      2.7595837      0              6.942722       49.840312    
     55500   2.9353562      2.7640186      0              7.164903       50.087765    
     56000   2.8503932      2.5547638      0              6.8282659      47.34258     
     56500   2.7695361      2.6280949      0              6.7803705      48.092337    
     57000   2.8546404      2.5758571      0              6.8557269      47.727778    
     57500   2.7567426      2.5018816      0              6.6349764      46.556988    
     58000   2.7745894      2.6970781      0              6.85693        49.216924    
     58500   2.7145089      2.5037934      0              6.5735686      46.396343    
     59000   2.7274348      2.7090734      0              6.798228       48.933115    
     59500   2.6210328      2.6072705      0              6.5369         47.643828    
     60000   2.8019649      2.4795051      0              6.6804002      46.401948    
     60500   2.6953101      2.3364628      0              6.3774538      44.907459    
     61000   2.6531735      2.5680517      0              6.5458687      47.423516    
     61500   2.6233029      2.4615094      0              6.3945424      46.09549     
     62000   2.7004679      2.4657089      0              6.5144328      46.385252    
     62500   2.6602263      2.4075264      0              6.3959175      45.260637    
     63000   2.6312771      2.4723949      0              6.4173833      46.086935    
     63500   2.5650022      2.3555541      0              6.2011787      44.74168     
     64000   2.6834368      2.3205095      0              6.3436993      44.450407    
     64500   2.6784717      2.4613501      0              6.4770959      45.842681    
     65000   2.5135794      2.3935994      0              6.1621276      45.112366    
     65500   2.6056489      2.3926353      0              6.2992001      45.459615    
     66000   2.529614       2.2260329      0              6.0186011      42.679411    
     66500   2.5196651      2.366107       0              6.1437591      44.651789    
     67000   2.4477813      2.2561373      0              5.9260164      43.179305    
     67500   2.5022051      2.2700382      0              6.0215131      43.541749    
     68000   2.5225252      2.335622       0              6.1175622      44.247557    
     68500   2.4481244      2.2562648      0              5.9266583      43.139309    
     69000   2.4836782      2.2424972      0              5.9661954      43.185297    
     69500   2.3697584      2.1894276      0              5.7423295      42.492133    
     70000   2.3881412      2.2679548      0              5.8484175      43.461577    
     70500   2.3842392      2.2064086      0              5.781021       42.925244    
     71000   2.4202527      2.1336427      0              5.7622491      41.923792    
     71500   2.3877236      2.2680705      0              5.847907       43.215217    
     72000   2.4500924      2.0945668      0              5.7679109      40.981236    
     72500   2.4459708      2.2940374      0              5.961202       43.68286     
     73000   2.3429124      2.0590108      0              5.5716634      40.75919     
     73500   2.2999541      2.0855552      0              5.5338017      40.973968    
     74000   2.2874768      2.091506       0              5.5210459      41.143295    
     74500   2.2741654      2.1474416      0              5.5570241      41.687618    
     75000   2.2356876      2.0929099      0              5.4448039      41.031853    
     75500   2.3005795      2.0190574      0              5.4682416      40.312045    
     76000   2.147301       2.0845899      0              5.3039687      40.958279    
     76500   2.1857887      2.1117558      0              5.3888379      41.031004    
     77000   2.2475668      1.9336513      0              5.3033553      39.163556    
     77500   2.1962944      1.9714728      0              5.2643057      39.580122    
     78000   2.2282869      1.9184001      0              5.2591984      38.891671    
     78500   2.2023609      1.9357208      0              5.237649       39.147201    
     79000   2.1485072      1.9627313      0              5.1839184      39.322404    
     79500   2.1468313      2.0463538      0              5.2650283      40.480038    
     80000   2.1384966      1.9451905      0              5.1513691      39.101521    
     80500   2.1036353      2.0054826      0              5.1593948      39.953997    
     81000   2.0692403      1.9268561      0              5.029201       38.975584    
     81500   2.1351877      1.9399859      0              5.1412036      39.250668    
     82000   2.041999       1.8599045      0              4.9214073      38.055983    
     82500   2.1182128      1.8203653      0              4.9961331      37.504821    
     83000   2.0583248      1.7988061      0              4.8847858      37.130137    
     83500   2.0281167      1.8018315      0              4.8425211      37.222938    
     84000   2.0265018      1.7837846      0              4.8220531      36.976301    
     84500   2.0591612      1.7906916      0              4.8779252      37.104231    
     85000   1.9981674      1.807204       0              4.8029915      37.195785    
     85500   1.9594501      1.7502871      0              4.688027       36.310909    
     86000   1.9213197      1.7611091      0              4.6416814      36.38879     
     86500   1.8991873      1.8097827      0              4.6571727      37.045076    
     87000   1.8775949      1.7105746      0              4.5255917      35.883941    
     87500   1.9614224      1.6728195      0              4.6135165      35.481456    
     88000   1.9535802      1.6554612      0              4.5844006      35.183753    
     88500   1.9218045      1.7695598      0              4.650859       36.524118    
     89000   1.8601471      1.6341127      0              4.422971       34.976499    
     89500   1.8265146      1.6923836      0              4.4308178      35.600701    
     90000   1.8440108      1.5651046      0              4.3297702      33.867191    
     90500   1.8277276      1.6208504      0              4.3611031      34.303822    
     91000   1.8140436      1.5999216      0              4.3196583      34.122833    
     91500   1.7870375      1.6090839      0              4.2883314      34.431531    
     92000   1.8099719      1.6398319      0              4.3534641      34.645051    
     92500   1.7849901      1.5480479      0              4.2242257      33.484871    
     93000   1.8009666      1.5929034      0              4.2930343      33.901357    
     93500   1.751517       1.5124144      0              4.1384071      32.892818    
     94000   1.7707717      1.5585678      0              4.2134283      33.458354    
     94500   1.676363       1.5045261      0              4.0178427      32.636972    
     95000   1.6932096      1.5237247      0              4.062299       33.036995    
     95500   1.6275565      1.4232905      0              3.8634332      31.530401    
     96000   1.6553291      1.4129612      0              3.8947425      31.54022     
     96500   1.6501784      1.4532255      0              3.9272845      32.128763    
     97000   1.6468065      1.4857707      0              3.9547743      32.687736    
     97500   1.6041587      1.4332876      0              3.8383507      31.701096    
     98000   1.6028542      1.4177344      0              3.8208417      31.49356     
     98500   1.6317375      1.4322775      0              3.8786886      31.595187    
     99000   1.5740174      1.311779       0              3.6716522      29.853006    
     99500   1.5744542      1.3444736      0              3.7050018      30.482988    
    100000   1.5014355      1.3365506      0              3.5876042      30.175254    
    100500   1.5364751      1.3491045      0              3.6526918      30.169096    
    101000   1.5025219      1.338067       0              3.5907494      30.20806     
    101500   1.473892       1.3225823      0              3.5323408      29.779292    
    102000   1.4974859      1.2782609      0              3.523393       29.315121    
    102500   1.4995305      1.319512       0              3.5677094      29.877513    
    103000   1.4729655      1.2628997      0              3.4712692      29.200534    
    103500   1.4782955      1.3162013      0              3.5325618      29.905364    
    104000   1.4193015      1.2397083      0              3.3676209      28.452451    
    104500   1.4620426      1.2096018      0              3.4015949      28.080716    
    105000   1.3811941      1.1562267      0              3.2270062      27.460978    
    105500   1.3917695      1.1850825      0              3.2717174      27.744048    
    106000   1.3895467      1.1146101      0              3.1979124      26.835978    
    106500   1.3478072      1.1879353      0              3.208659       27.847531    
    107000   1.3580762      1.1870428      0              3.2231624      27.622676    
    107500   1.3212078      1.1668935      0              3.1477375      27.202469    
    108000   1.3423886      1.1255534      0              3.1381531      27.157267    
    108500   1.3112766      1.1024603      0              3.0684147      26.499898    
    109000   1.3276859      1.0722299      0              3.0627863      26.049705    
    109500   1.2742861      1.106843       0              3.0173388      26.607768    
    110000   1.288538       1.127474       0              3.0593372      26.679049    
    110500   1.228365       1.0458426      0              2.8874904      25.505295    
    111000   1.2588961      1.0220378      0              2.90946        25.17176     
    111500   1.1748535      1.041669       0              2.8030887      25.358038    
    112000   1.2286817      0.96394275     0              2.8060654      24.084086    
    112500   1.1752283      0.95661761     0              2.7185993      24.185692    
    113000   1.1862893      0.96338153     0              2.7419466      24.206945    
    113500   1.1381479      0.97980162     0              2.6861898      24.568468    
    114000   1.1419593      0.94163499     0              2.6537376      23.909925    
    114500   1.1283332      0.94626211     0              2.6379355      23.732819    
    115000   1.1401527      0.92348824     0              2.6328822      23.609511    
    115500   1.0979299      0.88552607     0              2.5316168      23.061617    
    116000   1.0627682      0.92810011     0              2.521474       23.687288    
    116500   1.0762702      0.84277074     0              2.4563878      22.114459    
    117000   1.0522766      0.88099196     0              2.4586361      22.727168    
    117500   1.0483491      0.88053116     0              2.452287       22.85609     
    118000   1.0449799      0.81063001     0              2.3773345      21.661849    
    118500   1.0105884      0.868828       0              2.3839704      22.412275    
    119000   1.0040874      0.84921773     0              2.3546134      22.276203    
    119500   1.0229763      0.77166604     0              2.3053813      21.03993     
    120000   0.94670612     0.81852586     0              2.2378916      21.615492    
    120500   0.99143495     0.78232471     0              2.268751       21.006713    
    121000   0.9369179      0.75389175     0              2.1585824      20.583635    
    121500   0.93502594     0.7709576      0              2.1728117      20.850096    
    122000   0.8998622      0.69532108     0              2.0444553      19.40438     
    122500   0.88901659     0.72686029     0              2.059734       19.968439    
    123000   0.88363316     0.70237837     0              2.0271809      19.519038    
    123500   0.87592258     0.67526057     0              1.9885029      19.205113    
    124000   0.85733381     0.71342516     0              1.998798       19.619246    
    124500   0.85279503     0.67605773     0              1.9546257      19.161271    
    125000   0.84515438     0.68054346     0              1.947656       19.186357    
    125500   0.7892912      0.64866511     0              1.8320238      18.619517    
    126000   0.78864113     0.66165432     0              1.8440384      18.673076    
    126500   0.74437231     0.61423122     0              1.7302445      18.077676    
    127000   0.77154561     0.58646479     0              1.7432181      17.498811    
    127500   0.74738987     0.60128498     0              1.7218224      17.64046     
    128000   0.74678882     0.56124396     0              1.6808802      16.909291    
    128500   0.71952405     0.56510708     0              1.6438662      16.90669     
    129000   0.71809413     0.57145676     0              1.648072       17.061583    
    129500   0.69121165     0.53203834     0              1.5683496      16.304115    
    130000   0.68653892     0.53312654     0              1.5624321      16.270252    
    130500   0.66206195     0.50452797     0              1.497136       15.735694    
    131000   0.65442516     0.50978798     0              1.4909464      15.62378     
    131500   0.61711338     0.48265798     0              1.4078761      15.179486    
    132000   0.62460607     0.46741862     0              1.4038703      14.74235     
    132500   0.59855772     0.44856186     0              1.34596        14.498988    
    133000   0.58887725     0.44933288     0              1.3322175      14.452041    
    133500   0.59300665     0.44871765     0              1.3377933      14.471553    
    134000   0.56832642     0.39942343     0              1.2514968      13.485351    
    134500   0.55521506     0.41479446     0              1.2472104      13.813709    
    135000   0.52069122     0.37801149     0              1.158667       12.962366    
    135500   0.50578373     0.40482773     0              1.1631329      13.590221    
    136000   0.50742155     0.34137092     0              1.1021316      12.08116     
    136500   0.48988629     0.35753976     0              1.0920104      12.630315    
    137000   0.47375246     0.32873136     0              1.0390131      11.82608     
    137500   0.45657141     0.33850362     0              1.0230263      11.914504    
    138000   0.44110299     0.30266715     0              0.96399856     11.098523    
    138500   0.43096514     0.31365545     0              0.95978751     11.315656    
    139000   0.40397873     0.29148559     0              0.8971578      10.836445    
    139500   0.40731259     0.27793932     0              0.88860987     10.675506    
    140000   0.38127753     0.26202371     0              0.83366076     10.147218    
    140500   0.3723974      0.2584686      0              0.81679194     10.071872    
    141000   0.36148601     0.24137564     0              0.78333989     9.6846462    
    141500   0.34548447     0.23127915     0              0.7492528      9.2971775    
    142000   0.33796268     0.21821905     0              0.72491554     8.9947458    
    142500   0.3120775      0.21340604     0              0.68129372     8.8482991    
    143000   0.30345744     0.18947042     0              0.64443432     8.310011     
    143500   0.28510164     0.19127248     0              0.61871612     8.2191567    
    144000   0.2698444      0.166308       0              0.57087697     7.5603738    
    144500   0.26398805     0.16124862     0              0.55703735     7.374823     
    145000   0.23919138     0.15240308     0              0.51101497     7.071929     
    145500   0.23748451     0.14286168     0              0.49891451     6.8194149    
    146000   0.21845178     0.12472642     0              0.45224409     6.2371034    
    146500   0.20568999     0.11404989     0              0.42243422     5.8663508    
    147000   0.18525316     0.11251374     0              0.39025781     5.7803415    
    147500   0.18104069     0.09080619     0              0.36223462     5.0443366    
    148000   0.15909609     0.089150059    0              0.32767767     4.9209648    
    148500   0.14623908     0.077636101    0              0.29688761     4.6093021    
    149000   0.13019101     0.069900498    0              0.26509166     4.237482     
    149500   0.11524146     0.060998705    0              0.23377648     3.8738742    
    150000   0.10316214     0.047804397    0              0.20247204     3.309571     
Loop time of 6.85208 on 10 procs for 100000 steps with 2048 atoms

Performance: 12609315.242 tau/day, 14594.115 timesteps/s, 29.889 Matom-step/s
99.5% CPU use with 10 MPI tasks x 1 OpenMP threads

MPI task timing breakdown:
Section |  min time  |  avg time  |  max time  |%varavg| %total
---------------------------------------------------------------
Pair    | 1.1665     | 1.2864     | 1.466      |  10.7 | 18.77
Neigh   | 1.9288     | 2.2786     | 2.9533     |  26.6 | 33.25
Comm    | 1.6331     | 2.1374     | 2.864      |  28.4 | 31.19
Output  | 0.066943   | 0.067086   | 0.068054   |   0.1 |  0.98
Modify  | 0.42366    | 0.79173    | 1.5884     |  48.7 | 11.55
Other   |            | 0.2909     |            |       |  4.25

Nlocal:          204.8 ave         234 max         186 min
Histogram: 3 2 1 0 0 0 1 1 1 1
Nghost:          503.3 ave         545 max         438 min
Histogram: 2 2 0 0 0 0 0 0 1 5
Neighs:         1228.8 ave        1432 max        1116 min
Histogram: 3 2 1 0 1 0 1 1 0 1

Total # of neighbors = 12288
Ave neighs/atom = 6
Neighbor list builds = 27646
Dangerous builds = 0
Total wall time: 0:00:11
