ITEM: TIMESTEP
100000
ITEM: NUMBER OF ATOMS
400
ITEM: BOX BOUNDS pp pp pp
0.0000000000000000e+00 2.8284271247461902e+01
0.0000000000000000e+00 2.8284271247461902e+01
-7.0710678118654757e-01 7.0710678118654757e-01
ITEM: ATOMS id type xs ys zs
378 1 0.0966109 0.346973 0.5
178 1 0.0787023 0.0112567 0.5
2 1 0.0613317 0.0851479 0.5
158 1 0.161278 0.0163566 0.5
346 1 0.130511 0.290233 0.5
288 1 0.0151892 0.339423 0.5
80 1 0.144075 0.191146 0.5
198 1 0.0517112 0.417877 0.5
45 1 0.012964 0.175221 0.5
219 1 0.0474399 0.48521 0.5
341 1 0.178161 0.49986 0.5
128 1 0.135817 0.244154 0.5
169 1 0.092141 0.309094 0.5
262 1 0.100691 0.414021 0.5
329 1 0.0148306 0.374767 0.5
150 1 0.180807 0.193013 0.5
39 1 0.156725 0.118862 0.5
126 1 0.020463 0.0580632 0.5
297 1 0.103944 0.187125 0.5
284 1 0.150115 0.0703491 0.5
10 1 0.00857778 0.216785 0.5
41 1 0.105444 0.490995 0.5
8 1 0.135451 0.386437 0.5
237 1 0.184076 0.258338 0.5
309 1 0.194561 0.299605 0.5
68 1 0.0742274 0.0510112 0.5
154 1 0.157251 0.3114 0.5
48 1 0.0992043 0.268933 0.5
371 1 0.0620212 0.336216 0.5
40 1 0.171864 0.377994 0.5
323 1 0.179224 0.426478 0.5
160 1 0.0318751 0.306962 0.5
231 1 0.0610399 0.280084 0.5
278 1 0.19332 0.105533 0.5
382 1 0.0491676 0.243705 0.5
369 1 0.142908 0.155075 0.5
379 1 0.0219568 0.00428647 0.5
220 1 0.0173467 0.272838 0.5
307 1 0.097662 0.666619 0.5
373 1 0.0182554 0.673751 0.5
76 1 0.174816 0.954085 0.5
305 1 0.139404 0.557441 0.5
345 1 0.145249 0.803879 0.5
5 1 0.112425 0.60378 0.5
195 1 0.1745 0.906719 0.5
374 1 0.179101 0.543608 0.5
377 1 0.0977775 0.897179 0.5
280 1 0.108256 0.779626 0.5
50 1 0.119402 0.838671 0.5
17 1 0.0267536 0.93467 0.5
162 1 0.151032 0.767189 0.5
347 1 0.0987202 0.943095 0.5
179 1 0.0628768 0.673091 0.5
22 1 0.129343 0.91142 0.5
197 1 0.185425 0.604059 0.5
366 1 0.18595 0.988623 0.5
343 1 0.168793 0.669595 0.5
161 1 0.00467794 0.577672 0.5
152 1 0.135511 0.945619 0.5
248 1 0.0561217 0.776115 0.5
165 1 0.0249705 0.796068 0.5
123 1 0.027519 0.545171 0.5
320 1 0.184189 0.710195 0.5
190 1 0.0843484 0.84242 0.5
26 1 0.0570682 0.730725 0.5
42 1 0.17383 0.846365 0.5
43 1 0.0576053 0.904555 0.5
357 1 0.0335442 0.635576 0.5
326 1 0.0728002 0.608629 0.5
285 1 0.038838 0.591932 0.5
69 1 0.145642 0.614183 0.5
180 1 0.10152 0.719076 0.5
83 1 0.0181194 0.755571 0.5
298 1 0.107351 0.993514 0.5
354 1 0.0122951 0.86854 0.5
240 1 0.222836 0.143002 0.5
62 1 0.303282 0.356886 0.5
33 1 0.273189 0.26768 0.5
135 1 0.314106 0.0310781 0.5
271 1 0.272715 0.336315 0.5
183 1 0.237872 0.0745137 0.5
245 1 0.327034 0.180595 0.5
355 1 0.34323 0.115856 0.5
192 1 0.342402 0.34101 0.5
318 1 0.269479 0.207736 0.5
95 1 0.284356 0.0696222 0.5
172 1 0.370689 0.466335 0.5
96 1 0.332422 0.442832 0.5
120 1 0.24554 0.234197 0.5
84 1 0.297427 0.302856 0.5
260 1 0.278243 0.415299 0.5
330 1 0.358751 0.202111 0.5
332 1 0.368337 0.244248 0.5
36 1 0.339148 0.265288 0.5
65 1 0.221207 0.432072 0.5
203 1 0.302512 0.224101 0.5
4 1 0.37127 0.291051 0.5
358 1 0.300514 0.492972 0.5
213 1 0.391303 0.127071 0.5
129 1 0.358938 0.00578822 0.5
201 1 0.384235 0.43081 0.5
116 1 0.24389 0.384114 0.5
3 1 0.230221 0.00905728 0.5
31 1 0.399374 0.316845 0.5
186 1 0.233839 0.290257 0.5
277 1 0.200297 0.345226 0.5
132 1 0.364005 0.383905 0.5
185 1 0.292466 0.141705 0.5
353 1 0.227157 0.465264 0.5
251 1 0.260782 0.16521 0.5
385 1 0.25332 0.114795 0.5
7 1 0.39888 0.218391 0.5
46 1 0.21973 0.183764 0.5
361 1 0.358768 0.0861371 0.5
349 1 0.399093 0.171359 0.5
376 1 0.399391 0.0571204 0.5
28 1 0.200834 0.225546 0.5
34 1 0.207573 0.867963 0.5
86 1 0.321217 0.630315 0.5
400 1 0.341855 0.874532 0.5
51 1 0.345204 0.731333 0.5
235 1 0.266953 0.971705 0.5
118 1 0.322213 0.928276 0.5
49 1 0.233913 0.65076 0.5
334 1 0.378332 0.744215 0.5
282 1 0.242961 0.725538 0.5
72 1 0.213465 0.524548 0.5
1 1 0.306976 0.989362 0.5
225 1 0.259166 0.624726 0.5
207 1 0.246137 0.798263 0.5
315 1 0.222188 0.612011 0.5
223 1 0.323779 0.686645 0.5
392 1 0.223465 0.766142 0.5
230 1 0.270874 0.838892 0.5
79 1 0.284075 0.761933 0.5
93 1 0.283859 0.596417 0.5
176 1 0.324099 0.581947 0.5
291 1 0.26392 0.875345 0.5
325 1 0.310657 0.84844 0.5
295 1 0.367808 0.799827 0.5
313 1 0.37874 0.845995 0.5
339 1 0.345765 0.829394 0.5
232 1 0.376231 0.55616 0.5
101 1 0.270757 0.91644 0.5
228 1 0.376202 0.625468 0.5
156 1 0.342069 0.515399 0.5
147 1 0.351387 0.65392 0.5
364 1 0.221639 0.974551 0.5
70 1 0.293235 0.659613 0.5
239 1 0.386825 0.507701 0.5
396 1 0.266595 0.557622 0.5
303 1 0.232237 0.835924 0.5
175 1 0.36615 0.913423 0.5
272 1 0.364457 0.700131 0.5
21 1 0.214456 0.692005 0.5
287 1 0.211218 0.573041 0.5
250 1 0.253857 0.523723 0.5
44 1 0.398053 0.884959 0.5
267 1 0.407444 0.0170657 0.5
352 1 0.531647 0.101336 0.5
333 1 0.545967 0.382809 0.5
246 1 0.503278 0.198189 0.5
100 1 0.513469 0.358072 0.5
102 1 0.53458 0.138455 0.5
227 1 0.428888 0.49746 0.5
159 1 0.437041 0.416231 0.5
314 1 0.505494 0.473091 0.5
58 1 0.478025 0.241797 0.5
75 1 0.420101 0.460383 0.5
328 1 0.508962 0.417764 0.5
368 1 0.520055 0.0673772 0.5
331 1 0.437384 0.115372 0.5
391 1 0.470138 0.449939 0.5
208 1 0.599938 0.119044 0.5
275 1 0.572164 0.258471 0.5
140 1 0.474799 0.0774931 0.5
335 1 0.563674 0.188422 0.5
106 1 0.548927 0.0439786 0.5
273 1 0.525024 0.22395 0.5
302 1 0.447118 0.335348 0.5
144 1 0.409634 0.350619 0.5
171 1 0.463388 0.288673 0.5
107 1 0.455184 0.19194 0.5
121 1 0.437394 0.263517 0.5
217 1 0.527532 0.174632 0.5
163 1 0.454164 0.379932 0.5
15 1 0.588976 0.0071749 0.5
241 1 0.568445 0.429956 0.5
18 1 0.474294 0.149849 0.5
205 1 0.570959 0.350476 0.5
286 1 0.402653 0.277237 0.5
137 1 0.492152 0.325985 0.5
81 1 0.529407 0.265498 0.5
66 1 0.570836 0.30811 0.5
316 1 0.427548 0.0786541 0.5
97 1 0.573496 0.150617 0.5
375 1 0.569752 0.22336 0.5
264 1 0.599583 0.417017 0.5
255 1 0.56523 0.496601 0.5
216 1 0.535495 0.689087 0.5
104 1 0.548274 0.821397 0.5
24 1 0.471336 0.636146 0.5
54 1 0.554266 0.950966 0.5
37 1 0.41368 0.814404 0.5
92 1 0.453721 0.804083 0.5
266 1 0.49316 0.746997 0.5
224 1 0.420488 0.733067 0.5
125 1 0.506392 0.780143 0.5
90 1 0.571798 0.599002 0.5
136 1 0.462835 0.948181 0.5
233 1 0.543514 0.645616 0.5
367 1 0.449837 0.762512 0.5
187 1 0.470945 0.716054 0.5
14 1 0.510263 0.82023 0.5
105 1 0.493255 0.666256 0.5
112 1 0.445342 0.530835 0.5
244 1 0.405148 0.643768 0.5
304 1 0.545456 0.881714 0.5
390 1 0.493325 0.8515 0.5
143 1 0.583703 0.678639 0.5
268 1 0.411456 0.543634 0.5
252 1 0.536514 0.55836 0.5
300 1 0.474037 0.598768 0.5
393 1 0.423526 0.860077 0.5
381 1 0.403542 0.936519 0.5
337 1 0.502784 0.910331 0.5
141 1 0.510613 0.63386 0.5
133 1 0.43795 0.996575 0.5
174 1 0.522173 0.516119 0.5
226 1 0.440058 0.674753 0.5
82 1 0.516378 0.719105 0.5
103 1 0.580764 0.896926 0.5
324 1 0.436792 0.915734 0.5
167 1 0.488209 0.992805 0.5
142 1 0.50221 0.958293 0.5
212 1 0.587104 0.932939 0.5
60 1 0.420575 0.968368 0.5
63 1 0.768487 0.110161 0.5
321 1 0.758249 0.218008 0.5
253 1 0.796936 0.25441 0.5
206 1 0.638233 0.323617 0.5
296 1 0.67041 0.147784 0.5
16 1 0.68366 0.49794 0.5
85 1 0.766473 0.180881 0.5
342 1 0.672014 0.0543457 0.5
74 1 0.635732 0.15291 0.5
98 1 0.72428 0.173723 0.5
151 1 0.6946 0.0203256 0.5
148 1 0.769675 0.00694415 0.5
279 1 0.607157 0.464284 0.5
145 1 0.609838 0.0656366 0.5
365 1 0.741563 0.35089 0.5
138 1 0.752425 0.471863 0.5
276 1 0.696477 0.114631 0.5
380 1 0.787849 0.404302 0.5
257 1 0.64517 0.106968 0.5
124 1 0.735674 0.311244 0.5
299 1 0.687622 0.185172 0.5
113 1 0.642627 0.193951 0.5
32 1 0.653473 0.267528 0.5
157 1 0.747094 0.138927 0.5
363 1 0.675029 0.218327 0.5
164 1 0.620247 0.352837 0.5
344 1 0.712513 0.235014 0.5
155 1 0.622877 0.250168 0.5
77 1 0.798553 0.372632 0.5
78 1 0.60824 0.218491 0.5
25 1 0.636261 0.394044 0.5
234 1 0.705742 0.411241 0.5
261 1 0.759605 0.0468466 0.5
281 1 0.69046 0.274387 0.5
173 1 0.764169 0.434559 0.5
117 1 0.668892 0.424742 0.5
259 1 0.642979 0.0101823 0.5
88 1 0.600385 0.288963 0.5
319 1 0.784108 0.497615 0.5
395 1 0.789652 0.681297 0.5
99 1 0.772522 0.825779 0.5
94 1 0.748591 0.644075 0.5
170 1 0.622165 0.528385 0.5
351 1 0.771623 0.711949 0.5
55 1 0.607428 0.779948 0.5
362 1 0.792723 0.791097 0.5
64 1 0.792243 0.912987 0.5
356 1 0.725212 0.715499 0.5
242 1 0.68238 0.602983 0.5
89 1 0.779292 0.955381 0.5
47 1 0.659456 0.76677 0.5
52 1 0.659363 0.530995 0.5
312 1 0.668233 0.912524 0.5
71 1 0.740413 0.570364 0.5
265 1 0.7512 0.974417 0.5
398 1 0.6218 0.623076 0.5
149 1 0.686562 0.730581 0.5
399 1 0.65756 0.822497 0.5
122 1 0.602145 0.575907 0.5
243 1 0.747357 0.527458 0.5
311 1 0.74865 0.890575 0.5
12 1 0.654095 0.975361 0.5
214 1 0.64714 0.865321 0.5
11 1 0.720737 0.668568 0.5
317 1 0.766473 0.750098 0.5
211 1 0.729469 0.852997 0.5
134 1 0.69198 0.841365 0.5
9 1 0.623128 0.691456 0.5
127 1 0.720758 0.62091 0.5
359 1 0.623656 0.945625 0.5
221 1 0.698572 0.775003 0.5
236 1 0.742231 0.937163 0.5
293 1 0.798025 0.878905 0.5
210 1 0.647058 0.645153 0.5
199 1 0.735755 0.796453 0.5
270 1 0.710042 0.982139 0.5
109 1 0.776965 0.575169 0.5
194 1 0.611611 0.979261 0.5
166 1 0.775656 0.609545 0.5
308 1 0.610474 0.838762 0.5
306 1 0.613612 0.658159 0.5
139 1 0.722227 0.502048 0.5
23 1 0.888701 0.239605 0.5
38 1 0.850511 0.210167 0.5
360 1 0.968488 0.217047 0.5
67 1 0.951358 0.0855244 0.5
91 1 0.84173 0.0410358 0.5
19 1 0.803304 0.445935 0.5
215 1 0.802551 0.0524432 0.5
56 1 0.858619 0.42821 0.5
181 1 0.800916 0.304412 0.5
254 1 0.930692 0.214324 0.5
283 1 0.989629 0.1008 0.5
29 1 0.9214 0.0701523 0.5
168 1 0.856943 0.305935 0.5
229 1 0.930357 0.141796 0.5
340 1 0.930423 0.0270728 0.5
387 1 0.830786 0.268605 0.5
258 1 0.835453 0.384325 0.5
131 1 0.887129 0.0107971 0.5
292 1 0.966115 0.0495251 0.5
397 1 0.941601 0.269105 0.5
389 1 0.886979 0.392677 0.5
111 1 0.986264 0.139755 0.5
182 1 0.805131 0.114667 0.5
384 1 0.965295 0.417561 0.5
202 1 0.853705 0.127179 0.5
87 1 0.937287 0.332937 0.5
115 1 0.84956 0.173595 0.5
209 1 0.906097 0.177157 0.5
204 1 0.883086 0.151465 0.5
184 1 0.926418 0.410332 0.5
119 1 0.909355 0.49026 0.5
274 1 0.919476 0.365772 0.5
256 1 0.980152 0.485966 0.5
196 1 0.990252 0.308152 0.5
336 1 0.907753 0.298445 0.5
191 1 0.95698 0.167207 0.5
114 1 0.977715 0.376012 0.5
294 1 0.843462 0.479459 0.5
200 1 0.815247 0.204265 0.5
57 1 0.831419 0.00369714 0.5
263 1 0.918089 0.755915 0.5
327 1 0.868449 0.723512 0.5
146 1 0.811478 0.647141 0.5
130 1 0.988829 0.546175 0.5
153 1 0.862998 0.577121 0.5
188 1 0.979221 0.949254 0.5
110 1 0.827187 0.574593 0.5
289 1 0.831421 0.68377 0.5
218 1 0.902831 0.634436 0.5
383 1 0.859817 0.879083 0.5
177 1 0.867905 0.957771 0.5
348 1 0.903103 0.879679 0.5
338 1 0.902061 0.917662 0.5
386 1 0.946102 0.587094 0.5
370 1 0.983647 0.695759 0.5
269 1 0.844452 0.527171 0.5
108 1 0.98922 0.642823 0.5
249 1 0.901876 0.577341 0.5
238 1 0.809406 0.727287 0.5
388 1 0.934114 0.721372 0.5
73 1 0.954362 0.512009 0.5
222 1 0.933618 0.664299 0.5
193 1 0.888566 0.840973 0.5
13 1 0.850493 0.621175 0.5
30 1 0.835231 0.817889 0.5
61 1 0.942396 0.629285 0.5
372 1 0.95526 0.904276 0.5
53 1 0.894347 0.700106 0.5
35 1 0.864924 0.788167 0.5
301 1 0.836389 0.760732 0.5
322 1 0.90065 0.80424 0.5
59 1 0.943059 0.818251 0.5
350 1 0.989921 0.829058 0.5
394 1 0.882091 0.512577 0.5
6 1 0.840235 0.930677 0.5
290 1 0.979737 0.605098 0.5
20 1 0.953141 0.759181 0.5
247 1 0.804648 0.532574 0.5
189 1 0.80104 0.983617 0.5
27 1 0.922068 0.970395 0.5
310 1 0.995238 0.916452 0.5
