ITEM: TIMESTEP
100000
ITEM: NUMBER OF ATOMS
2048
ITEM: BOX BOUNDS pp pp pp
0.0000000000000000e+00 1.2699208415745595e+01
0.0000000000000000e+00 1.2699208415745595e+01
0.0000000000000000e+00 1.2699208415745595e+01
ITEM: ATOMS id type xs ys zs
910 1 0.0577161 0.0280893 0.0319708
92 1 0.13583 0.0511131 0.0182333
963 1 0.189939 0.0119876 0.0423558
544 1 0.294776 0.0183931 0.0506915
1210 1 0.431771 0.0492643 0.0318231
1193 1 0.507695 0.0403744 0.0643094
856 1 0.644193 0.00798091 0.0629145
1689 1 0.871836 0.0387999 0.0304849
1978 1 0.979084 0.0229402 0.0626917
947 1 0.0227674 0.0965885 0.0455681
1108 1 0.205156 0.0848992 0.0190661
1373 1 0.293798 0.110235 0.0324643
2041 1 0.55736 0.06367 0.00895677
44 1 0.660227 0.074085 0.0292074
2015 1 0.743894 0.0741376 0.0271176
292 1 0.813744 0.0804281 0.0552177
1836 1 0.93909 0.0868564 0.0450685
1392 1 0.0589146 0.165877 0.0434543
1144 1 0.121148 0.129541 0.0276577
1882 1 0.374659 0.129968 0.0534021
1799 1 0.42892 0.155288 0.00812859
854 1 0.490547 0.117689 0.030733
1964 1 0.599525 0.128728 0.0263544
624 1 0.655596 0.160857 0.0658373
780 1 0.846453 0.123289 0.000852812
944 1 0.906197 0.157069 0.039063
1622 1 0.183891 0.192654 0.0313583
1161 1 0.318715 0.221434 0.0415613
1227 1 0.397068 0.220195 0.0565948
1843 1 0.545184 0.174081 0.0497172
1470 1 0.60001 0.211728 0.0195701
768 1 0.745874 0.177981 0.0518157
939 1 0.97559 0.183519 0.0627019
531 1 0.0736985 0.258991 0.0219397
572 1 0.167612 0.271051 0.0453773
497 1 0.241413 0.242762 0.0381546
1017 1 0.449737 0.232426 0.00204025
1074 1 0.523152 0.254847 0.00792036
1562 1 0.827788 0.273134 0.0414435
1659 1 0.975248 0.268359 0.0565511
1921 1 0.0871728 0.329818 0.0444047
1960 1 0.312401 0.294529 0.0489212
1841 1 0.406321 0.302902 0.0377075
1495 1 0.482805 0.319214 0.00573953
1305 1 0.572179 0.306335 0.020794
594 1 0.655578 0.303028 0.00193346
534 1 0.744348 0.29262 0.0167591
1450 1 0.160062 0.349909 0.03873
1437 1 0.283068 0.347937 0.00162884
635 1 0.441022 0.370224 0.0478921
1640 1 0.620813 0.373807 0.00850285
490 1 0.684727 0.35301 0.0602573
1469 1 0.793262 0.345324 0.0354856
1153 1 0.879732 0.341964 0.0511279
1757 1 0.975017 0.350575 0.0622489
1466 1 0.0282228 0.39809 0.0401772
1498 1 0.102304 0.428982 0.0193093
2010 1 0.253338 0.437351 0.0373046
66 1 0.533228 0.408247 0.0510471
1863 1 0.675396 0.441562 0.0144667
321 1 0.85825 0.405215 0.0228025
495 1 0.95831 0.440166 0.0133783
1620 1 0.0736565 0.498939 0.0496444
285 1 0.185103 0.452499 0.000836118
1984 1 0.320222 0.466326 0.0088689
921 1 0.40889 0.451804 0.0234859
238 1 0.487457 0.467851 0.0242187
1773 1 0.574589 0.462115 0.0172701
1910 1 0.630376 0.49914 0.0524031
1604 1 0.758353 0.456629 0.0178093
1540 1 0.826148 0.477692 0.0296081
1393 1 0.99141 0.489579 0.0602899
236 1 0.0357573 0.0482272 0.131969
801 1 0.376046 0.049023 0.0862439
1087 1 0.57687 0.048213 0.1059
1176 1 0.719905 0.012409 0.0829307
1671 1 0.81646 0.0124876 0.102985
174 1 0.900336 0.0116116 0.131469
1459 1 0.104378 0.0642612 0.0875832
664 1 0.24095 0.0939091 0.0885495
1145 1 0.315765 0.0906519 0.103917
1806 1 0.452351 0.0842983 0.112258
1833 1 0.522151 0.105135 0.107535
1150 1 0.6423 0.0873523 0.106251
1720 1 0.73551 0.0886942 0.100343
1125 1 0.882811 0.10349 0.0931197
1939 1 0.975906 0.109568 0.114884
1194 1 0.0763582 0.12729 0.131886
38 1 0.167866 0.145158 0.0908213
820 1 0.415825 0.151006 0.12564
1831 1 0.75537 0.158377 0.127454
1475 1 0.820864 0.118554 0.129666
1586 1 0.041753 0.218481 0.0909514
1027 1 0.124377 0.198266 0.124403
144 1 0.204025 0.219679 0.106321
221 1 0.253688 0.169237 0.0685737
271 1 0.339791 0.168376 0.110802
1904 1 0.467175 0.185334 0.0732842
1950 1 0.600436 0.184899 0.113206
1323 1 0.832072 0.16859 0.0670857
918 1 0.256835 0.269787 0.123973
1436 1 0.359857 0.243939 0.122849
1942 1 0.512526 0.24666 0.0885719
1524 1 0.587712 0.268237 0.0827934
466 1 0.68421 0.273267 0.0691275
1107 1 0.772821 0.239923 0.0894347
1033 1 0.852796 0.25937 0.113416
925 1 0.907988 0.227342 0.0705738
258 1 0.0299193 0.307669 0.0907678
1394 1 0.128398 0.28353 0.11044
1682 1 0.199724 0.323985 0.100686
265 1 0.455371 0.291291 0.104858
1289 1 0.520421 0.324235 0.0784691
828 1 0.63985 0.283524 0.13212
1825 1 0.716786 0.307671 0.127462
112 1 0.805684 0.315937 0.102639
1945 1 0.92046 0.30057 0.114957
1570 1 0.0500418 0.384959 0.105837
1565 1 0.125999 0.368211 0.105235
476 1 0.280645 0.350934 0.0942639
668 1 0.353025 0.36411 0.0775291
1739 1 0.601458 0.349021 0.0789076
1769 1 0.194986 0.402591 0.0890535
354 1 0.31507 0.436825 0.0871793
1317 1 0.401176 0.418463 0.0942819
368 1 0.474524 0.435619 0.102216
456 1 0.568901 0.400578 0.119926
1855 1 0.635748 0.417063 0.0736368
2046 1 0.745316 0.389355 0.0890568
1997 1 0.82436 0.420487 0.0955848
504 1 0.912929 0.398115 0.0965862
1460 1 0.986371 0.418008 0.110631
54 1 0.0470544 0.464097 0.116969
1039 1 0.140967 0.458397 0.0842479
1378 1 0.200878 0.499236 0.0756279
1276 1 0.36249 0.496382 0.0674365
1147 1 0.562544 0.471799 0.105037
485 1 0.693404 0.473824 0.0830392
1142 1 0.813697 0.498051 0.114526
1324 1 0.882262 0.480613 0.0912915
919 1 0.161812 0.0099026 0.190881
2027 1 0.227283 0.051744 0.181369
2045 1 0.289738 0.0319757 0.144865
249 1 0.358364 0.011992 0.182628
1684 1 0.44842 0.0421364 0.198408
1209 1 0.509311 0.0409372 0.147184
683 1 0.628064 0.0428757 0.168837
74 1 0.700938 0.0507633 0.190252
696 1 0.970215 0.0355914 0.168438
1906 1 0.0124187 0.099924 0.184043
90 1 0.101725 0.0721907 0.18196
1314 1 0.165613 0.0705077 0.137978
770 1 0.382418 0.0969731 0.183534
1862 1 0.583151 0.10979 0.152367
866 1 0.778951 0.0581222 0.155532
362 1 0.911882 0.0890525 0.164541
276 1 0.124425 0.151376 0.18317
1522 1 0.222074 0.12828 0.177453
395 1 0.299288 0.124604 0.169769
741 1 0.456691 0.117683 0.181771
509 1 0.681717 0.137227 0.15257
1667 1 0.0438176 0.193696 0.173178
709 1 0.266349 0.186532 0.154876
1815 1 0.341989 0.186257 0.189508
507 1 0.522794 0.198701 0.146809
75 1 0.605466 0.168821 0.19673
771 1 0.667807 0.213921 0.138036
835 1 0.742597 0.192028 0.192054
1743 1 0.82408 0.221349 0.179228
893 1 0.903859 0.167737 0.14591
1965 1 0.973404 0.211551 0.136052
1287 1 0.108919 0.227436 0.19271
343 1 0.190334 0.259817 0.173528
1076 1 0.307186 0.256623 0.181197
1187 1 0.438607 0.22612 0.135659
1687 1 0.763271 0.261479 0.161402
207 1 0.996873 0.2537 0.199034
1140 1 0.062858 0.279249 0.154969
1099 1 0.336394 0.313273 0.13514
1605 1 0.40007 0.314067 0.185482
335 1 0.55655 0.299386 0.145467
180 1 0.825824 0.311531 0.187939
606 1 0.941934 0.299883 0.190677
903 1 0.181171 0.358168 0.165863
1835 1 0.261928 0.340144 0.169731
508 1 0.34508 0.383702 0.165371
366 1 0.497036 0.354579 0.144251
687 1 0.634896 0.376727 0.171288
1206 1 0.79758 0.377264 0.168465
2032 1 0.866953 0.354151 0.143667
1154 1 0.935633 0.388265 0.166669
293 1 0.996393 0.341254 0.150955
169 1 0.0176704 0.42283 0.178981
318 1 0.102849 0.432462 0.157895
60 1 0.258044 0.409672 0.136194
878 1 0.30196 0.436229 0.190878
707 1 0.430259 0.390661 0.162949
408 1 0.658573 0.443164 0.146606
380 1 0.717107 0.389549 0.163425
1164 1 0.189135 0.467163 0.14663
984 1 0.381654 0.449457 0.17288
1417 1 0.507223 0.451889 0.183579
752 1 0.588926 0.444854 0.180298
1040 1 0.730456 0.465412 0.143933
122 1 0.85787 0.447119 0.160453
715 1 0.924315 0.475063 0.185833
1196 1 0.0262585 0.00293871 0.218308
480 1 0.201432 0.0337773 0.25644
527 1 0.299869 0.0366798 0.227623
785 1 0.615054 0.036471 0.246872
1346 1 0.698005 0.0196355 0.263286
1525 1 0.00240236 0.0740906 0.26391
1874 1 0.154801 0.103382 0.232535
1670 1 0.256319 0.0927141 0.258607
799 1 0.358561 0.0842714 0.256424
706 1 0.498018 0.0876246 0.249637
1353 1 0.555553 0.0628027 0.202691
956 1 0.634015 0.106123 0.224142
1527 1 0.781239 0.0723323 0.25484
530 1 0.84724 0.064309 0.200137
170 1 0.928607 0.0637652 0.240393
824 1 0.0220737 0.150629 0.260195
556 1 0.419076 0.141668 0.251099
1699 1 0.735843 0.117834 0.202653
1887 1 0.823143 0.14329 0.202571
1660 1 0.896669 0.139525 0.224802
296 1 0.968905 0.162671 0.202577
1814 1 0.189674 0.190671 0.207657
1116 1 0.262075 0.181771 0.236241
1515 1 0.485669 0.203118 0.224285
1031 1 0.680998 0.169918 0.239828
601 1 0.768002 0.173548 0.262694
1343 1 0.845111 0.196944 0.254255
600 1 0.905383 0.214052 0.209676
130 1 0.96493 0.21659 0.258258
115 1 0.0550571 0.243839 0.246347
1177 1 0.131369 0.250132 0.264269
927 1 0.373875 0.251745 0.216062
1989 1 0.44924 0.269841 0.225261
697 1 0.557121 0.244106 0.209378
857 1 0.695626 0.265821 0.20205
1280 1 0.789045 0.256111 0.239702
1168 1 0.8867 0.273437 0.260445
465 1 0.0297384 0.327923 0.233668
1224 1 0.120617 0.320349 0.204774
1170 1 0.181661 0.310728 0.250123
147 1 0.259698 0.29385 0.230667
489 1 0.336395 0.320776 0.227312
1629 1 0.512963 0.309071 0.209624
1787 1 0.611051 0.298962 0.206626
980 1 0.754089 0.327561 0.212147
307 1 0.8167 0.332874 0.259446
553 1 0.0806471 0.38578 0.227467
1355 1 0.242771 0.372616 0.239747
277 1 0.448734 0.351872 0.231359
341 1 0.553623 0.374359 0.204889
1148 1 0.67139 0.373584 0.247186
317 1 0.892625 0.354327 0.233129
1236 1 0.150919 0.412939 0.222565
1816 1 0.389481 0.399313 0.239372
1870 1 0.529083 0.437687 0.253936
1753 1 0.767886 0.398686 0.234732
735 1 0.840146 0.416281 0.248783
280 1 0.96795 0.390675 0.247441
411 1 0.00260543 0.459547 0.256175
2012 1 0.077361 0.471333 0.238835
233 1 0.243779 0.484162 0.205756
404 1 0.436881 0.459692 0.242935
1407 1 0.691974 0.453666 0.21286
1066 1 0.796874 0.465159 0.20689
1268 1 0.874277 0.48609 0.240696
202 1 0.0281663 0.0203238 0.320474
615 1 0.265596 0.0126273 0.2971
1335 1 0.418463 0.0410166 0.277497
1832 1 0.499904 0.0224464 0.322404
729 1 0.815809 0.0342634 0.320374
1136 1 0.878761 0.0234127 0.284357
16 1 0.956076 0.0172213 0.299927
1036 1 0.0488049 0.106256 0.31805
1751 1 0.0790723 0.0559081 0.271216
15 1 0.165802 0.0757199 0.322246
1414 1 0.313873 0.0680672 0.316585
1037 1 0.461283 0.0906243 0.322816
578 1 0.576615 0.0772949 0.297231
1800 1 0.865742 0.103039 0.283574
1337 1 0.193294 0.140409 0.286988
975 1 0.341537 0.137867 0.307679
914 1 0.524839 0.156035 0.291915
1789 1 0.59656 0.150651 0.277092
1251 1 0.69695 0.116794 0.29054
605 1 0.773747 0.119423 0.320991
1085 1 0.949313 0.122373 0.296536
1901 1 0.00343787 0.194383 0.320749
862 1 0.0933019 0.176961 0.286655
1053 1 0.152347 0.199031 0.327234
1641 1 0.26954 0.172358 0.324229
177 1 0.33076 0.211276 0.26811
762 1 0.654143 0.178395 0.319729
320 1 0.212804 0.225775 0.270259
640 1 0.295386 0.259824 0.325139
848 1 0.368061 0.275812 0.302571
644 1 0.428052 0.225682 0.282338
1202 1 0.513356 0.23399 0.295366
315 1 0.602719 0.230869 0.271037
1415 1 0.721854 0.236158 0.27286
440 1 0.906198 0.226538 0.32187
786 1 0.0506779 0.283494 0.328939
1139 1 0.100794 0.319161 0.280599
1614 1 0.449135 0.313291 0.31154
449 1 0.56009 0.291768 0.268533
1821 1 0.661659 0.300116 0.284992
41 1 0.80931 0.285085 0.318672
1505 1 0.96804 0.308207 0.285932
1184 1 0.042238 0.366083 0.314253
1443 1 0.265256 0.334041 0.309654
1688 1 0.32713 0.374798 0.287652
1727 1 0.400147 0.37269 0.326459
1708 1 0.504395 0.366027 0.279551
444 1 0.598947 0.340593 0.32244
1327 1 0.730872 0.334605 0.294918
1610 1 0.853124 0.382047 0.321959
349 1 0.946907 0.365041 0.328688
188 1 0.106756 0.410741 0.299046
894 1 0.195176 0.426367 0.282108
1663 1 0.468324 0.42766 0.304544
2029 1 0.547957 0.416795 0.325793
2043 1 0.597496 0.398225 0.267243
1444 1 0.718265 0.413529 0.299098
1129 1 0.909952 0.426905 0.278596
868 1 0.995844 0.429444 0.325213
1541 1 0.0543306 0.471661 0.312923
1410 1 0.141962 0.48593 0.273993
797 1 0.27535 0.447377 0.301119
753 1 0.354937 0.463105 0.270933
841 1 0.675749 0.470375 0.28448
844 1 0.777037 0.482509 0.286457
1468 1 0.850873 0.463836 0.311754
1564 1 0.106502 0.0214655 0.337695
1601 1 0.166867 0.0159447 0.38078
1709 1 0.290243 0.013814 0.366378
873 1 0.377432 0.0111576 0.343256
51 1 0.805523 0.0117191 0.399839
1313 1 0.88898 0.00969949 0.399612
1611 1 0.958822 0.0171629 0.379211
1777 1 0.235843 0.0830344 0.353822
1915 1 0.642407 0.0682721 0.342898
468 1 0.720724 0.0634126 0.341428
726 1 0.841058 0.0958395 0.362545
1853 1 0.909155 0.0691352 0.342001
242 1 0.974087 0.0965746 0.368046
133 1 0.0344492 0.143943 0.388076
418 1 0.124259 0.140544 0.365626
1299 1 0.210978 0.15137 0.369356
361 1 0.400684 0.123804 0.357112
582 1 0.460164 0.166472 0.345296
1677 1 0.522014 0.116906 0.362657
1955 1 0.602618 0.138065 0.36319
790 1 0.71127 0.161248 0.360905
1169 1 0.786729 0.161609 0.383252
6 1 0.935664 0.159543 0.359773
945 1 0.0812544 0.208196 0.361074
1750 1 0.375295 0.197917 0.341937
1923 1 0.550477 0.213468 0.35341
960 1 0.761118 0.213879 0.335076
393 1 0.860106 0.16836 0.339073
930 1 0.123223 0.277765 0.34767
423 1 0.223063 0.24388 0.347233
1624 1 0.457882 0.252759 0.363673
559 1 0.608188 0.266139 0.34377
1785 1 0.680469 0.247414 0.351974
787 1 0.989293 0.224518 0.390459
685 1 0.200272 0.318164 0.345919
1730 1 0.271826 0.280265 0.395396
1340 1 0.324379 0.326448 0.356557
1075 1 0.389719 0.287532 0.377902
1426 1 0.535205 0.300491 0.341375
1947 1 0.610986 0.319777 0.397961
1571 1 0.682673 0.331795 0.361413
1318 1 0.745755 0.288513 0.368064
995 1 0.88888 0.304653 0.340152
1121 1 0.959195 0.291402 0.370954
1982 1 0.0526413 0.352843 0.395012
528 1 0.123466 0.35239 0.343646
158 1 0.176659 0.388587 0.389745
399 1 0.481087 0.369947 0.361403
1715 1 0.786552 0.354639 0.349391
2003 1 0.0804787 0.423809 0.374319
1772 1 0.238254 0.397606 0.346409
1352 1 0.324134 0.403236 0.360069
53 1 0.626469 0.408231 0.34766
953 1 0.694871 0.425879 0.370118
1216 1 0.853602 0.402827 0.395141
1405 1 0.927775 0.429345 0.36836
1654 1 0.171254 0.460017 0.340066
1134 1 0.304648 0.477798 0.363112
240 1 0.382924 0.448421 0.34556
834 1 0.493698 0.455498 0.372316
427 1 0.618874 0.488547 0.337978
52 1 0.876864 0.49306 0.388306
4 1 0.0234991 0.019553 0.457817
39 1 0.168892 0.0178918 0.455926
567 1 0.232611 0.0514702 0.423201
1432 1 0.428005 0.00494625 0.439294
350 1 0.495813 0.0384614 0.415314
1520 1 0.645766 0.0527185 0.416397
1032 1 0.70934 0.00701211 0.411273
310 1 0.0361398 0.0976864 0.464798
414 1 0.0921488 0.0575406 0.427417
281 1 0.162653 0.0886084 0.409089
311 1 0.306518 0.0827583 0.429056
880 1 0.389094 0.0785623 0.415602
1310 1 0.567669 0.0696117 0.407719
992 1 0.774395 0.0820374 0.422897
716 1 0.899696 0.0830992 0.427647
1647 1 0.965957 0.0713425 0.466265
1655 1 0.0970754 0.141184 0.446749
1109 1 0.222739 0.13745 0.444452
2028 1 0.351344 0.150646 0.417639
246 1 0.44697 0.133915 0.422244
1765 1 0.52344 0.139551 0.445862
1091 1 0.623559 0.11494 0.45813
1936 1 0.691578 0.132208 0.431136
294 1 0.833099 0.13228 0.450868
1386 1 0.954744 0.153794 0.433393
109 1 0.0245378 0.176482 0.456741
441 1 0.146773 0.220079 0.409797
722 1 0.216987 0.222188 0.440019
754 1 0.28749 0.174592 0.465914
138 1 0.410249 0.200604 0.417785
1159 1 0.491868 0.204824 0.422512
189 1 0.580528 0.196302 0.461384
610 1 0.632511 0.212115 0.403595
108 1 0.78751 0.220077 0.428967
998 1 0.88369 0.176786 0.412915
1205 1 0.0766758 0.269459 0.4173
86 1 0.338904 0.237035 0.40228
1021 1 0.534127 0.27098 0.41949
532 1 0.70933 0.238205 0.422994
1533 1 0.844115 0.261327 0.400883
1306 1 0.921706 0.247079 0.417277
422 1 0.00557761 0.285401 0.439815
993 1 0.132048 0.320515 0.413167
1513 1 0.210291 0.309211 0.431383
172 1 0.313887 0.314113 0.451122
232 1 0.461717 0.315486 0.433007
1060 1 0.675876 0.301079 0.441013
1598 1 0.897461 0.327006 0.422399
1100 1 0.275039 0.365122 0.403355
1089 1 0.371495 0.378872 0.418264
1211 1 0.559708 0.341712 0.453181
1155 1 0.624595 0.380941 0.454177
34 1 0.741115 0.36079 0.415371
1425 1 0.823835 0.339433 0.430492
1824 1 0.96993 0.374317 0.404982
149 1 0.108393 0.391866 0.438617
1532 1 0.387954 0.443758 0.451534
1325 1 0.442058 0.418459 0.407914
543 1 0.555243 0.395203 0.402185
1639 1 0.685944 0.425167 0.44384
1447 1 0.781802 0.425883 0.400376
1721 1 0.907939 0.443544 0.439062
72 1 0.0115374 0.466726 0.405527
1069 1 0.0759419 0.474341 0.450031
1246 1 0.147929 0.453288 0.417286
49 1 0.227104 0.448346 0.402271
433 1 0.288342 0.480525 0.454804
165 1 0.432588 0.499596 0.425649
1366 1 0.541119 0.468571 0.434887
1567 1 0.619911 0.453096 0.41148
1695 1 0.0446738 0.00609133 0.527338
1173 1 0.251021 0.0164415 0.492326
1585 1 0.343555 0.0350817 0.486992
1725 1 0.485728 0.00813131 0.489692
135 1 0.627356 0.0141519 0.489547
1877 1 0.7518 0.0464994 0.490244
1131 1 0.14313 0.0850208 0.480209
257 1 0.204612 0.0721493 0.521095
1521 1 0.278365 0.0969149 0.525768
1158 1 0.424696 0.0686309 0.487847
2020 1 0.493635 0.102084 0.510539
107 1 0.561101 0.0753633 0.486831
680 1 0.680449 0.0761384 0.495255
1985 1 0.825858 0.0604584 0.4681
1616 1 0.897184 0.0563295 0.504703
549 1 0.0666261 0.148312 0.513943
1022 1 0.215888 0.156896 0.516534
517 1 0.36219 0.123385 0.489382
227 1 0.543995 0.162235 0.532107
1749 1 0.663151 0.155952 0.509596
1300 1 0.749652 0.145688 0.479642
1302 1 0.808126 0.113522 0.522742
65 1 0.989594 0.141883 0.521389
163 1 0.153878 0.188653 0.485973
1301 1 0.380986 0.201735 0.486314
1011 1 0.457715 0.168026 0.509014
1538 1 0.732562 0.214587 0.531103
273 1 0.801465 0.192785 0.511027
1163 1 0.885406 0.198877 0.495369
1502 1 0.0566913 0.22719 0.505737
1377 1 0.139555 0.261364 0.471139
1197 1 0.201897 0.246104 0.510876
1336 1 0.316487 0.241017 0.479124
538 1 0.467347 0.248742 0.476861
669 1 0.544662 0.24134 0.529245
591 1 0.597991 0.269379 0.471344
1784 1 0.662925 0.233023 0.504549
111 1 0.834481 0.256329 0.483188
338 1 0.968848 0.224514 0.472817
1239 1 0.0809772 0.302702 0.490621
863 1 0.179528 0.316151 0.514067
479 1 0.258399 0.300895 0.501712
832 1 0.331682 0.305939 0.530346
777 1 0.394077 0.278336 0.491766
789 1 0.509148 0.306136 0.505077
1347 1 0.647329 0.305718 0.51058
166 1 0.755753 0.298949 0.476706
805 1 0.917803 0.285387 0.510582
692 1 0.99374 0.292158 0.519204
1146 1 0.00810841 0.354484 0.47301
510 1 0.180047 0.388773 0.474643
1090 1 0.343007 0.381036 0.488678
225 1 0.420449 0.350854 0.49173
756 1 0.498043 0.38284 0.470492
1954 1 0.548315 0.367695 0.52897
1285 1 0.703049 0.378579 0.504036
1818 1 0.794256 0.381417 0.488143
97 1 0.868866 0.380671 0.466837
153 1 0.940415 0.383249 0.489538
382 1 0.0682364 0.409722 0.507195
1 1 0.265737 0.394778 0.497737
760 1 0.413892 0.41577 0.521921
1059 1 0.623065 0.397953 0.526719
502 1 0.00293169 0.447328 0.481912
1010 1 0.130681 0.45668 0.506274
2035 1 0.201823 0.489547 0.498393
488 1 0.341797 0.456045 0.517116
1406 1 0.476642 0.462046 0.499312
943 1 0.552539 0.456299 0.50819
833 1 0.649076 0.468423 0.500818
1232 1 0.734994 0.492151 0.47623
1879 1 0.836064 0.444532 0.478619
439 1 0.895677 0.45434 0.530279
1755 1 0.964108 0.484504 0.530205
1344 1 0.150552 0.0146175 0.538714
1805 1 0.244534 0.0422798 0.581316
1359 1 0.318042 0.0432348 0.568233
746 1 0.440083 0.0325962 0.563912
1331 1 0.690352 0.012189 0.540432
451 1 0.776764 0.032435 0.585913
1288 1 0.858823 0.0154795 0.555082
1416 1 0.913447 0.0535544 0.592712
705 1 0.00762289 0.0739753 0.546309
191 1 0.094972 0.0736468 0.538408
305 1 0.382873 0.0810862 0.55139
367 1 0.515197 0.064843 0.570605
629 1 0.617917 0.0951334 0.547056
1914 1 0.669853 0.0669686 0.597381
964 1 0.737507 0.107101 0.56192
1368 1 0.839861 0.105697 0.598099
1672 1 0.0682559 0.125061 0.590165
631 1 0.136083 0.148535 0.553797
1489 1 0.221356 0.116583 0.583654
847 1 0.382083 0.158374 0.562842
823 1 0.451499 0.116263 0.573366
1885 1 0.568315 0.120784 0.597591
1678 1 0.912059 0.137633 0.538266
164 1 0.0282292 0.202241 0.583801
45 1 0.288096 0.179818 0.544145
740 1 0.478432 0.187445 0.586782
1255 1 0.61249 0.182112 0.562443
1073 1 0.779924 0.172469 0.582247
1381 1 0.858485 0.190343 0.573548
991 1 0.941761 0.213365 0.543901
1062 1 0.110864 0.224221 0.554094
1733 1 0.193876 0.228931 0.583469
1930 1 0.264234 0.250446 0.564871
1231 1 0.344059 0.23702 0.560504
1587 1 0.432045 0.232388 0.546505
968 1 0.673863 0.270454 0.575764
1662 1 0.795573 0.249802 0.558255
514 1 0.948189 0.273742 0.596293
100 1 0.163637 0.300804 0.59255
1859 1 0.429899 0.303071 0.569936
546 1 0.518168 0.321626 0.592634
1549 1 0.593087 0.316487 0.560063
464 1 0.735038 0.300299 0.550962
1096 1 0.810356 0.327344 0.542955
2024 1 0.865735 0.306399 0.59103
1932 1 0.00175126 0.383094 0.543877
1788 1 0.0713775 0.340265 0.596466
765 1 0.124139 0.365919 0.546388
584 1 0.218534 0.357785 0.566818
1084 1 0.380207 0.36422 0.562367
1380 1 0.472499 0.369506 0.551845
2011 1 0.655542 0.363102 0.585621
2040 1 0.85876 0.388073 0.555754
1967 1 0.927894 0.345063 0.556501
1626 1 0.197119 0.437829 0.55973
827 1 0.301953 0.394608 0.574556
162 1 0.367206 0.437965 0.591447
1981 1 0.709265 0.440636 0.547886
972 1 0.782912 0.40933 0.562985
493 1 0.0568244 0.482256 0.534116
306 1 0.268127 0.465193 0.535929
1072 1 0.465642 0.4617 0.587182
1175 1 0.595581 0.484908 0.561404
1367 1 0.783453 0.48167 0.5356
838 1 0.83714 0.457411 0.583007
1693 1 0.0681502 0.0315264 0.600171
895 1 0.207546 0.0311758 0.663833
1716 1 0.28117 0.0206794 0.652895
1511 1 0.354962 0.0424747 0.636833
387 1 0.429007 0.0308123 0.641026
1741 1 0.505763 0.0158115 0.640537
899 1 0.580998 0.0453159 0.608125
568 1 0.988227 0.0223103 0.603613
415 1 0.150151 0.0618134 0.601705
1949 1 0.60465 0.100348 0.663646
455 1 0.740006 0.0790882 0.63754
1510 1 0.89489 0.108506 0.650821
719 1 0.977856 0.108942 0.616678
779 1 0.153338 0.144375 0.628313
1086 1 0.314395 0.122945 0.607043
1471 1 0.38617 0.120858 0.62874
840 1 0.464109 0.112252 0.652048
563 1 0.678977 0.130041 0.648829
948 1 0.0958179 0.210229 0.629385
334 1 0.244859 0.179882 0.612843
1500 1 0.329756 0.198651 0.643732
1135 1 0.529214 0.176437 0.646859
1402 1 0.607215 0.176435 0.647286
1188 1 0.680184 0.192751 0.608716
340 1 0.747007 0.168346 0.656067
728 1 0.832873 0.221868 0.638284
581 1 0.930505 0.16964 0.605401
1880 1 0.0102534 0.250271 0.652611
1595 1 0.169658 0.225032 0.655478
1326 1 0.260758 0.246247 0.65226
603 1 0.404921 0.227414 0.619356
997 1 0.476996 0.258967 0.612035
662 1 0.547616 0.253719 0.63449
2038 1 0.753705 0.250786 0.622642
1830 1 0.0843284 0.283631 0.647197
1067 1 0.2624 0.32426 0.623166
994 1 0.34506 0.283545 0.621653
1166 1 0.628918 0.288828 0.635833
955 1 0.698762 0.311097 0.639024
413 1 0.784867 0.327048 0.622277
1191 1 0.327622 0.357517 0.647935
48 1 0.408667 0.347679 0.633663
1047 1 0.573252 0.345566 0.63967
1055 1 0.721127 0.3848 0.636498
67 1 0.887991 0.375967 0.627824
474 1 0.999133 0.34911 0.61824
1589 1 0.021817 0.418744 0.63927
1566 1 0.133159 0.394831 0.611254
1775 1 0.202467 0.389406 0.638857
1742 1 0.270349 0.437884 0.631214
406 1 0.432654 0.423372 0.652555
723 1 0.506407 0.399488 0.642213
14 1 0.586753 0.416998 0.603904
1811 1 0.661021 0.44014 0.609451
829 1 0.806674 0.399244 0.642993
141 1 0.950725 0.412992 0.603586
59 1 0.0233461 0.487202 0.603727
435 1 0.0947547 0.466333 0.607055
63 1 0.188411 0.461785 0.636506
747 1 0.399081 0.497788 0.632243
875 1 0.75256 0.464742 0.608292
198 1 0.821447 0.473937 0.654064
1395 1 0.899058 0.463386 0.632744
1734 1 0.031335 0.00970967 0.678913
793 1 0.109214 0.00274249 0.697303
1474 1 0.171427 0.0353673 0.728354
1847 1 0.251806 0.0181422 0.726506
61 1 0.387306 0.0140637 0.69948
1354 1 0.4595 0.0336376 0.716027
1186 1 0.579162 0.0258163 0.681953
1653 1 0.659499 0.0303037 0.668886
1081 1 0.71936 0.0415351 0.715251
1701 1 0.793293 0.050646 0.685627
733 1 0.042557 0.095613 0.680306
1668 1 0.137656 0.0833509 0.677944
1282 1 0.263232 0.0946781 0.671749
1530 1 0.320493 0.056651 0.708805
558 1 0.401418 0.091754 0.701211
234 1 0.528953 0.0850691 0.68346
1008 1 0.678833 0.108563 0.72305
652 1 0.872649 0.0610175 0.714284
959 1 0.948835 0.0601304 0.688958
424 1 0.101942 0.164333 0.698064
125 1 0.207732 0.160218 0.686433
151 1 0.333895 0.125645 0.681053
113 1 0.526848 0.15223 0.720057
650 1 0.622331 0.161366 0.722054
58 1 0.759265 0.115268 0.720027
1127 1 0.822478 0.131087 0.67872
358 1 0.888382 0.159959 0.724308
1384 1 0.964216 0.135795 0.697109
1871 1 0.0239765 0.171015 0.666881
1957 1 0.282685 0.184781 0.706741
698 1 0.366123 0.216261 0.724711
176 1 0.411413 0.173107 0.679313
390 1 0.565127 0.218003 0.699847
241 1 0.684842 0.204438 0.687346
384 1 0.802051 0.192246 0.714713
599 1 0.930645 0.201199 0.678389
376 1 0.0730135 0.235603 0.702982
1499 1 0.219643 0.239292 0.715063
295 1 0.293789 0.269205 0.716374
1128 1 0.409928 0.276484 0.677027
1900 1 0.473021 0.234721 0.687339
5 1 0.723802 0.270033 0.713247
1675 1 0.797073 0.277256 0.686284
309 1 0.866797 0.243739 0.711326
290 1 0.994403 0.241861 0.723658
1061 1 0.0291982 0.323139 0.696852
1308 1 0.117237 0.307749 0.717297
1792 1 0.185074 0.305544 0.671335
855 1 0.571692 0.294205 0.700894
999 1 0.663738 0.318417 0.711898
1413 1 0.864471 0.313877 0.679312
1907 1 0.934571 0.280173 0.688896
1482 1 0.095348 0.368615 0.673915
126 1 0.16261 0.372736 0.701997
877 1 0.262784 0.35051 0.694395
331 1 0.422856 0.350608 0.710226
1399 1 0.504571 0.340702 0.720594
1783 1 0.599196 0.365135 0.711503
571 1 0.748767 0.343218 0.695028
2017 1 0.816483 0.387527 0.718053
701 1 0.945989 0.357973 0.676535
2033 1 0.211732 0.432706 0.717216
872 1 0.320984 0.399888 0.722197
1291 1 0.475781 0.414432 0.7192
1400 1 0.624553 0.433605 0.670477
259 1 0.677869 0.395399 0.710532
1763 1 0.885677 0.423614 0.698512
973 1 0.071555 0.457914 0.681939
1396 1 0.137215 0.444789 0.709604
1581 1 0.345833 0.454429 0.672873
614 1 0.400801 0.466828 0.722629
1363 1 0.472454 0.488996 0.671457
1461 1 0.558578 0.476778 0.680427
421 1 0.640815 0.488978 0.721334
1621 1 0.704328 0.471599 0.670734
181 1 0.956547 0.446191 0.682713
763 1 0.124522 0.00170598 0.777493
46 1 0.35725 0.00361018 0.766392
1656 1 0.644446 0.0174867 0.742493
1141 1 0.775975 0.0431556 0.761462
458 1 0.0978281 0.068087 0.743119
262 1 0.214731 0.087549 0.769352
178 1 0.330572 0.0745128 0.792084
1171 1 0.419982 0.0614369 0.777258
1813 1 0.501664 0.0610734 0.773862
985 1 0.581453 0.0841191 0.741351
570 1 0.991816 0.0703941 0.754705
755 1 0.070431 0.136732 0.761786
1767 1 0.158851 0.129914 0.735278
1000 1 0.220788 0.165651 0.764472
1382 1 0.28343 0.119517 0.74755
616 1 0.355527 0.142903 0.754911
20 1 0.448235 0.139444 0.739346
952 1 0.629479 0.122705 0.78708
1504 1 0.831133 0.124186 0.769672
1995 1 0.94035 0.123281 0.772379
1534 1 0.064527 0.21294 0.791947
842 1 0.142244 0.179415 0.79648
1781 1 0.440326 0.20837 0.767995
1225 1 0.514842 0.200295 0.788263
1172 1 0.598405 0.201794 0.798053
222 1 0.702249 0.174142 0.757874
1509 1 0.775715 0.182315 0.78861
460 1 0.931818 0.218694 0.768914
25 1 0.995241 0.170967 0.76005
55 1 0.144109 0.224129 0.734842
865 1 0.230381 0.239071 0.793454
804 1 0.346276 0.263732 0.783871
1491 1 0.491684 0.27578 0.756904
898 1 0.63556 0.253277 0.742018
837 1 0.782676 0.258143 0.766136
1204 1 0.0697492 0.287365 0.777311
1256 1 0.193146 0.314184 0.752555
1918 1 0.271369 0.315054 0.777388
1484 1 0.351274 0.322903 0.733445
608 1 0.418062 0.284679 0.75918
69 1 0.556688 0.284313 0.79027
275 1 0.708037 0.316607 0.786905
50 1 0.845086 0.294923 0.761054
463 1 0.919787 0.289168 0.786864
329 1 0.106271 0.375363 0.752489
757 1 0.45632 0.358985 0.778203
731 1 0.615629 0.341324 0.783304
717 1 0.778342 0.337684 0.770051
1411 1 0.893244 0.349029 0.740114
551 1 0.96831 0.33753 0.74702
87 1 0.0357406 0.396095 0.741804
704 1 0.182825 0.405302 0.779839
800 1 0.264702 0.415097 0.774632
774 1 0.392295 0.398616 0.759517
1025 1 0.555112 0.402983 0.756397
1992 1 0.626696 0.426554 0.763221
1369 1 0.689791 0.392458 0.793644
363 1 0.81668 0.394319 0.795722
2006 1 0.897616 0.433216 0.774011
1235 1 0.0446419 0.473565 0.781561
766 1 0.129317 0.462273 0.78992
1181 1 0.20638 0.480804 0.777707
1619 1 0.272645 0.491794 0.745059
881 1 0.331497 0.456446 0.7794
1645 1 0.470081 0.47315 0.768258
1241 1 0.604596 0.495595 0.799703
462 1 0.684214 0.474655 0.781694
1953 1 0.757242 0.445808 0.73959
1493 1 0.828208 0.467522 0.73646
1315 1 0.951024 0.489709 0.757629
253 1 0.0765888 0.0523852 0.818942
1754 1 0.184887 0.0441156 0.834945
1897 1 0.272624 0.0277043 0.800804
302 1 0.386338 0.0370339 0.862228
287 1 0.550375 0.0302059 0.826512
1543 1 0.728634 0.00166268 0.84605
1233 1 0.940841 0.0369766 0.801931
1652 1 0.133411 0.0957777 0.805108
1321 1 0.246546 0.110608 0.830008
2019 1 0.468923 0.0667769 0.842607
815 1 0.532828 0.110739 0.821344
1840 1 0.610244 0.0613535 0.854654
1464 1 0.671818 0.0598335 0.802129
224 1 0.681896 0.100018 0.864056
923 1 0.741451 0.0999309 0.800432
1979 1 0.81041 0.0861112 0.85615
88 1 0.860437 0.0577183 0.807172
1156 1 0.917763 0.08908 0.86564
1307 1 0.989062 0.0947258 0.835628
1182 1 0.0766482 0.126701 0.847594
483 1 0.32155 0.118067 0.856045
580 1 0.416971 0.136827 0.81969
2037 1 0.753177 0.142583 0.866144
1536 1 0.88088 0.149084 0.821221
660 1 0.0302139 0.185926 0.858832
630 1 0.190527 0.197762 0.858737
671 1 0.299147 0.183201 0.804248
1514 1 0.374629 0.20969 0.827362
557 1 0.462177 0.197357 0.839967
1810 1 0.537654 0.175252 0.859215
1736 1 0.669992 0.172907 0.827883
1497 1 0.77334 0.220836 0.852989
443 1 0.93623 0.182835 0.858417
936 1 0.12955 0.250659 0.843862
576 1 0.201051 0.274825 0.85946
1389 1 0.274057 0.258025 0.856876
1198 1 0.44238 0.277358 0.831092
379 1 0.518935 0.253357 0.848209
1935 1 0.707843 0.237868 0.800083
323 1 0.859457 0.22641 0.806435
613 1 0.915749 0.263001 0.857062
99 1 0.995187 0.251266 0.818336
319 1 0.0615302 0.294841 0.85105
2039 1 0.134113 0.321225 0.805983
1263 1 0.379169 0.326238 0.832538
916 1 0.57326 0.313511 0.861763
627 1 0.652804 0.278841 0.832762
250 1 0.747295 0.296047 0.854853
1803 1 0.833473 0.283827 0.858302
1119 1 0.0270915 0.348621 0.804798
1496 1 0.209133 0.351232 0.826643
743 1 0.28683 0.335144 0.864776
751 1 0.331772 0.386859 0.822158
237 1 0.468743 0.355312 0.857818
1152 1 0.528006 0.356738 0.807455
561 1 0.886504 0.356445 0.817496
298 1 0.956509 0.361301 0.861371
128 1 0.0842677 0.405525 0.821405
1842 1 0.411895 0.412438 0.838816
666 1 0.502724 0.44141 0.840777
745 1 0.583127 0.400048 0.839115
1507 1 0.671907 0.428245 0.866249
1264 1 0.756664 0.430212 0.832049
781 1 0.910028 0.422048 0.854703
409 1 0.975326 0.411896 0.803227
1472 1 0.050549 0.473436 0.855503
1506 1 0.297186 0.454115 0.857887
1149 1 0.363019 0.491029 0.839053
882 1 0.441221 0.490039 0.840607