LAMMPS (15 Sep 2022)
OMP_NUM_THREADS environment is not set. Defaulting to 1 thread. (src/comm.cpp:98)
  using 1 OpenMP thread(s) per MPI task
Lattice spacing in x,y,z = 1.5874011 1.5874011 1.5874011
Created orthogonal box = (0 0 0) to (12.699208 12.699208 12.699208)
  1 by 2 by 5 MPI processor grid
Created 2048 atoms
  using lattice units in orthogonal box = (0 0 0) to (12.699208 12.699208 12.699208)
  create_atoms CPU = 0.000 seconds
Generated 0 of 0 mixed pair_coeff terms from geometric mixing rule
Neighbor list info ...
  update: every = 1 steps, delay = 0 steps, check = yes
  max neighbors/atom: 2000, page size: 100000
  master list distance cutoff = 1.3
  ghost atom cutoff = 1.3
  binsize = 0.65, bins = 20 20 20
  1 neighbor lists, perpetual/occasional/extra = 1 0 0
  (1) pair lj/cut, perpetual
      attributes: half, newton on
      pair build: half/bin/atomonly/newton
      stencil: half/bin/3d
      bin: standard
Setting up Verlet run ...
  Unit style    : lj
  Current step  : 0
  Time step     : 0.01
Per MPI rank memory allocation (min/avg/max) = 3.083 | 3.089 | 3.092 Mbytes
   Step          Temp          E_pair         E_mol          TotEng         Press     
         0   3              0              0              4.4978027      2.9985352    
       500   3.1504062      1.9013647      0              6.6246665      26.177183    
      1000   3.1198762      1.8071125      0              6.4846417      25.424814    
      1500   3.0688391      1.8065271      0              6.4075381      25.606568    
      2000   2.9920146      1.8790034      0              6.3648338      26.179454    
      2500   3.0581427      1.8550555      0              6.4400298      25.793592    
      3000   3.0016134      1.755048       0              6.2552697      25.070887    
      3500   3.0409187      1.8441431      0              6.4032939      25.514234    
      4000   2.9210092      1.7094894      0              6.0888638      24.473232    
      4500   2.9917588      1.8065575      0              6.2920045      25.165045    
      5000   2.9920836      1.895458       0              6.3813919      26.02065     
      5500   3.0520767      1.7386547      0              6.3145344      24.852865    
      6000   3.084022       1.8110718      0              6.434846       25.397162    
      6500   3.0223867      1.7333009      0              6.2646673      24.822281    
      7000   3.0365902      1.7780483      0              6.3307094      24.918118    
      7500   3.1420464      1.7665093      0              6.4772775      25.222513    
      8000   3.0382406      1.758876       0              6.3140116      24.881904    
      8500   3.0352113      1.9378769      0              6.4884709      26.516964    
      9000   2.9910251      1.8863977      0              6.3707446      25.969382    
      9500   2.9843466      1.8208798      0              6.2952138      25.235019    
     10000   3.0168007      1.9370842      0              6.4600756      26.420894    
     10500   2.9625854      1.7231229      0              6.1648311      24.445067    
     11000   3.0135384      1.800764       0              6.3188644      25.241048    
     11500   3.0200961      1.774389       0              6.3023212      25.072917    
     12000   3.0245185      1.7829271      0              6.3174896      24.847055    
     12500   3.0053178      1.7636291      0              6.2694046      25.173165    
     13000   3.0154532      1.9946731      0              6.5156443      26.792879    
     13500   2.9913039      1.7322901      0              6.2170551      24.498941    
     14000   3.0220828      1.8095067      0              6.3404175      25.236695    
     14500   3.0265425      1.8209973      0              6.3585944      25.650179    
     15000   3.0133683      1.7863656      0              6.304211       25.125383    
     15500   2.935726       1.8455126      0              6.2469514      25.558565    
     16000   2.999782       1.7525668      0              6.2500427      24.699593    
     16500   2.8988854      1.7653874      0              6.1115923      24.937212    
     17000   2.983662       1.8075538      0              6.2808615      25.378691    
     17500   3.0042177      1.8360958      0              6.340222       25.330205    
     18000   2.9401693      1.6789422      0              6.0870428      24.016907    
     18500   2.9420908      1.863372       0              6.2743533      25.503441    
     19000   2.9300446      1.7859705      0              6.1788914      25.068482    
     19500   3.0128232      1.7989727      0              6.3160009      25.367119    
     20000   3.0584753      1.7668467      0              6.3523196      25.118727    
     20500   3.0149856      1.7889631      0              6.3092332      24.958739    
     21000   3.0903059      1.7233556      0              6.3565511      24.676426    
     21500   2.9904673      1.911857       0              6.3953677      26.198205    
     22000   2.9606277      1.8559008      0              6.294674       25.716433    
     22500   3.0305291      1.7681204      0              6.3116944      25.126566    
     23000   2.9533401      1.9187888      0              6.3466358      26.040872    
     23500   2.9856371      1.7556511      0              6.23192        24.823217    
     24000   2.904307       1.8476569      0              6.2019902      25.32911     
     24500   3.061797       1.7340671      0              6.32452        24.595964    
     25000   3.0243132      1.9147885      0              6.4490432      26.365639    
     25500   2.9642464      1.8255835      0              6.269782       25.412254    
     26000   3.0154132      1.8698019      0              6.3907131      25.96806     
     26500   3.0640696      1.7459762      0              6.3398364      24.778523    
     27000   3.1043406      1.7870229      0              6.44126        25.237831    
     27500   2.9569092      1.8225143      0              6.2557123      25.400775    
     28000   2.999707       1.7649994      0              6.2623629      24.966295    
     28500   2.9987082      1.824767       0              6.3206329      25.484507    
     29000   2.9826496      1.9204299      0              6.3922197      26.27416     
     29500   3.0807517      1.7744646      0              6.3933358      25.291059    
     30000   3.034722       1.8341708      0              6.3840311      25.684002    
     30500   3.080085       1.8643866      0              6.4822583      25.84792     
     31000   3.0788637      1.7111204      0              6.3271609      24.766447    
     31500   3.0999626      1.8708572      0              6.5185307      25.953789    
     32000   3.0256817      1.7846242      0              6.3209307      25.283186    
     32500   2.9945333      1.805923       0              6.2955298      25.558086    
     33000   2.9625247      1.7990123      0              6.2406296      25.498173    
     33500   3.0121858      1.7466759      0              6.2627484      24.794298    
     34000   2.9425315      1.7745967      0              6.1862387      24.925246    
     34500   2.9462716      1.8567137      0              6.2739631      25.508506    
     35000   2.9714841      1.8305985      0              6.2856483      25.477089    
     35500   2.9896527      1.7592466      0              6.2415359      24.872725    
     36000   3.0109736      1.725572       0              6.2398271      24.759178    
     36500   3.020706       1.7932846      0              6.3221311      25.315484    
     37000   2.9624232      1.7839896      0              6.2254547      24.807192    
     37500   2.9745709      1.8161215      0              6.2757993      25.050153    
     38000   2.979704       1.8180136      0              6.2853872      25.094761    
     38500   3.0095371      1.7491939      0              6.2612953      24.637743    
     39000   3.0359201      1.7414236      0              6.2930802      24.561141    
     39500   2.9337589      1.7847112      0              6.1832008      24.993554    
     40000   2.997697       1.8784101      0              6.37276        26.032004    
     40500   3.020136       1.923034       0              6.4510261      26.266126    
     41000   3.0196155      1.7406477      0              6.2678593      24.768077    
     41500   3.0778232      1.8255352      0              6.4400157      25.356129    
     42000   3.0944058      1.7590599      0              6.3984021      25.089191    
     42500   3.1044403      1.9409247      0              6.5953115      26.462425    
     43000   3.0333178      1.7390307      0              6.2867857      24.806325    
     43500   3.0451464      1.8800373      0              6.4455265      25.953024    
     44000   3.0170016      1.7744336      0              6.2977264      25.253185    
     44500   3.0771692      1.8205961      0              6.4340961      25.090334    
     45000   2.9478266      1.7774421      0              6.197023       24.830534    
     45500   2.9682147      1.8390689      0              6.289217       25.332861    
     46000   3.0735272      1.6179317      0              6.2259714      23.827284    
     46500   3.0860387      1.743307       0              6.3701047      24.914523    
     47000   2.9632309      1.8392191      0              6.2818951      25.591377    
     47500   3.0323294      1.8645595      0              6.4108327      25.666774    
     48000   2.9459124      1.8126779      0              6.2293888      25.227462    
     48500   3.0022923      1.8121438      0              6.3133833      25.359603    
     49000   3.0441324      1.8353546      0              6.3993235      25.542651    
     49500   3.0827774      1.9323094      0              6.5542175      26.628092    
     50000   3.012944       1.7803378      0              6.297547       24.969069    
Loop time of 3.97769 on 10 procs for 50000 steps with 2048 atoms

Performance: 10860567.602 tau/day, 12570.101 timesteps/s, 25.744 Matom-step/s
99.6% CPU use with 10 MPI tasks x 1 OpenMP threads

MPI task timing breakdown:
Section |  min time  |  avg time  |  max time  |%varavg| %total
---------------------------------------------------------------
Pair    | 0.46616    | 0.47941    | 0.49885    |   1.7 | 12.05
Neigh   | 2.0507     | 2.0793     | 2.1749     |   2.4 | 52.27
Comm    | 0.93372    | 1.0039     | 1.0535     |   3.5 | 25.24
Output  | 0.0013437  | 0.0017668  | 0.0053725  |   2.9 |  0.04
Modify  | 0.24295    | 0.26047    | 0.28315    |   2.7 |  6.55
Other   |            | 0.1529     |            |       |  3.84

Nlocal:          204.8 ave         215 max         195 min
Histogram: 1 0 1 2 1 1 2 0 1 1
Nghost:          497.9 ave         509 max         478 min
Histogram: 1 0 0 0 0 2 3 1 2 1
Neighs:          979.4 ave        1060 max         896 min
Histogram: 2 0 0 0 2 2 1 2 0 1

Total # of neighbors = 9794
Ave neighs/atom = 4.7822266
Neighbor list builds = 20218
Dangerous builds = 0
Generated 0 of 0 mixed pair_coeff terms from geometric mixing rule
Setting up Verlet run ...
  Unit style    : lj
  Current step  : 50000
  Time step     : 0.01
Per MPI rank memory allocation (min/avg/max) = 3.14 | 3.143 | 3.144 Mbytes
   Step          Temp          E_pair         E_mol          TotEng         Press     
     50000   3.012944       1.7803378      0              6.297547       24.969069    
     50500   3.0747655      1.750377       0              6.3602732      24.989142    
     51000   3.0270944      1.8172495      0              6.355674       25.367017    
     51500   2.9118967      1.7149969      0              6.0807092      24.364947    
     52000   2.9903751      1.6875559      0              6.1709284      24.300318    
     52500   2.9570594      1.6884203      0              6.1218435      24.328289    
     53000   2.8505738      1.8375517      0              6.1113246      25.254482    
     53500   2.9795792      1.8184397      0              6.2856262      25.319314    
     54000   2.8762525      1.7203222      0              6.0325944      24.057972    
     54500   2.9302478      1.7479884      0              6.1412139      24.682245    
     55000   2.8353092      1.6592907      0              5.9101779      23.84825     
     55500   2.8312279      1.6924248      0              5.937193       23.953555    
     56000   2.7535049      1.6791623      0              5.8074029      23.738062    
     56500   2.8771718      1.5817592      0              5.8954096      23.373135    
     57000   2.8207213      1.6867106      0              5.9157265      24.251043    
     57500   2.7812759      1.6756042      0              5.845481       23.907676    
     58000   2.8172431      1.7342308      0              5.958032       24.503988    
     58500   2.7264515      1.6116004      0              5.6992807      23.110395    
     59000   2.7605336      1.6354631      0              5.7742416      23.57883     
     59500   2.6405337      1.6056563      0              5.5645228      23.109601    
     60000   2.7202795      1.6087843      0              5.6872112      23.195032    
     60500   2.7359913      1.6677416      0              5.7697247      23.859209    
     61000   2.7124365      1.5267767      0              5.5934448      22.396877    
     61500   2.715399       1.5291482      0              5.6002579      22.782273    
     62000   2.6045905      1.649075       0              5.5540531      23.721313    
     62500   2.6552703      1.6641107      0              5.6450714      23.8201      
     63000   2.6906518      1.6077296      0              5.6417366      23.081929    
     63500   2.6484834      1.5410537      0              5.5118389      22.467477    
     64000   2.5656401      1.4984231      0              5.3450041      22.210591    
     64500   2.5820677      1.4400286      0              5.311239       21.402072    
     65000   2.5080061      1.4914685      0              5.2516408      22.001245    
     65500   2.476878       1.5459689      0              5.2594718      22.230952    
     66000   2.5264218      1.4849743      0              5.2727567      21.882527    
     66500   2.5295469      1.4854879      0              5.2779556      21.889617    
     67000   2.5191089      1.529572       0              5.3063904      22.325809    
     67500   2.5179737      1.4753239      0              5.2504401      21.76079     
     68000   2.50553        1.5377611      0              5.2942209      22.34121     
     68500   2.4984429      1.466456       0              5.2122905      21.874916    
     69000   2.4485375      1.4862395      0              5.1572524      21.975043    
     69500   2.5365091      1.3828562      0              5.185762       20.966293    
     70000   2.4505136      1.5617134      0              5.235689       22.362881    
     70500   2.4266508      1.517075       0              5.1552739      22.028881    
     71000   2.4168047      1.4540959      0              5.0775329      21.453617    
     71500   2.4642551      1.4347346      0              5.1293124      21.265337    
     72000   2.4114996      1.4073707      0              5.0228538      20.848719    
     72500   2.3744565      1.4968491      0              5.0567947      21.973298    
     73000   2.3416333      1.4185205      0              4.9292554      21.115784    
     73500   2.328352       1.3987539      0              4.8895766      20.923584    
     74000   2.3367481      1.4398883      0              4.9432989      21.418679    
     74500   2.3048803      1.3611573      0              4.8167896      20.553533    
     75000   2.3069445      1.4278839      0              4.886611       21.369353    
     75500   2.2913096      1.2489386      0              4.6842248      19.33946     
     76000   2.21147        1.2813451      0              4.5969303      19.663735    
     76500   2.2607952      1.2624914      0              4.6520283      19.614294    
     77000   2.254488       1.202975       0              4.5830558      18.863579    
     77500   2.1941301      1.2670204      0              4.5566084      19.492061    
     78000   2.1691077      1.2355707      0              4.4876435      19.251998    
     78500   2.1499499      1.2906039      0              4.5139541      19.719301    
     79000   2.1572115      1.1875961      0              4.4218334      18.771675    
     79500   2.0918034      1.2170172      0              4.3531902      19.048583    
     80000   2.1270587      1.1999455      0              4.3889757      18.830546    
     80500   2.0809648      1.1780026      0              4.2979256      18.833618    
     81000   2.128132       1.1469552      0              4.3375946      18.405896    
     81500   2.0810863      1.1588058      0              4.278911       18.320622    
     82000   2.0649989      1.1831598      0              4.2791457      18.511865    
     82500   2.0806051      1.1580367      0              4.2774205      18.346747    
     83000   2.1261091      1.1897412      0              4.3773477      18.809563    
     83500   2.0730201      1.1795152      0              4.287527       18.552163    
     84000   2.1014175      1.2072525      0              4.3578397      18.923851    
     84500   1.9975521      1.1475808      0              4.1424459      18.129664    
     85000   2.0304631      1.1184993      0              4.1627068      17.738895    
     85500   2.0260542      1.1068761      0              4.1444734      17.945505    
     86000   1.9940136      1.1330692      0              4.1226292      17.963813    
     86500   1.9886983      1.0752759      0              4.0568668      17.399692    
     87000   1.9567628      1.1101871      0              4.0438982      17.817509    
     87500   1.8471685      1.0620029      0              3.8314027      17.263341    
     88000   1.9147989      1.0272987      0              3.8980945      16.916475    
     88500   1.8397091      1.0583697      0              3.8165859      17.243301    
     89000   1.8379173      1.0065254      0              3.7620552      16.662367    
     89500   1.8661583      0.99248076     0              3.7903514      16.31282     
     90000   1.8460588      1.0200127      0              3.7877488      16.708583    
     90500   1.8680109      1.0060502      0              3.8066984      16.606754    
     91000   1.8395178      1.0257078      0              3.7836372      16.90086     
     91500   1.8361018      1.034508       0              3.7873159      17.058718    
     92000   1.7140728      1.0674357      0              3.6372894      17.120317    
     92500   1.7941356      0.95763562     0              3.647525       16.023837    
     93000   1.7295113      0.9868491      0              3.5798493      16.359616    
     93500   1.7173712      0.95688328     0              3.5316823      16.006503    
     94000   1.6999775      0.97667827     0              3.5253993      16.218431    
     94500   1.6446515      0.97532936     0              3.441102       16.174315    
     95000   1.6815011      0.96259519     0              3.4836152      16.041481    
     95500   1.6695931      0.94658196     0              3.4497488      15.841488    
     96000   1.6473941      0.88936635     0              3.3592509      15.513133    
     96500   1.6769489      0.9115071      0              3.4257023      15.519411    
     97000   1.687518       0.94253311     0              3.4725741      15.635352    
     97500   1.635743       0.97060334     0              3.4230198      16.062896    
     98000   1.6570673      0.9028917      0              3.387279       15.425289    
     98500   1.6562305      0.88214085     0              3.3652735      15.111838    
     99000   1.5854246      0.92323867     0              3.3002144      15.583956    
     99500   1.5725057      0.84885104     0              3.2064578      14.794174    
    100000   1.5041651      0.8493834      0              3.1045294      14.682193    
    100500   1.5154418      0.8104873      0              3.08254        14.273931    
    101000   1.4984671      0.77887958     0              3.0254827      13.953416    
    101500   1.4774556      0.8254355      0              3.0405367      14.284608    
    102000   1.4669255      0.88516328     0              3.0844771      15.108815    
    102500   1.4844875      0.84591151     0              3.0715554      14.675379    
    103000   1.4335733      0.7873479      0              2.9366578      13.792922    
    103500   1.4344051      0.80970422     0              2.9602613      14.155876    
    104000   1.4542083      0.80359228     0              2.9838396      14.142653    
    104500   1.4203397      0.77072359     0              2.9001929      13.854419    
    105000   1.44465        0.7552427      0              2.9211597      13.685498    
    105500   1.4379768      0.80989944     0              2.9658114      14.25379     
    106000   1.3788389      0.70360159     0              2.7708501      12.953779    
    106500   1.353996       0.7134567      0              2.743459       12.946062    
    107000   1.3333046      0.68560113     0              2.6845815      12.794465    
    107500   1.3233648      0.73549733     0              2.7195753      13.16481     
    108000   1.3321031      0.70362479     0              2.7008037      12.779072    
    108500   1.2988608      0.67250481     0              2.6198447      12.626317    
    109000   1.2747465      0.67579953     0              2.5869856      12.667137    
    109500   1.2447424      0.67836875     0              2.5445706      12.564718    
    110000   1.2626089      0.66369954     0              2.5566882      12.471238    
    110500   1.2955361      0.63422139     0              2.5765767      12.090862    
    111000   1.2481968      0.62288163     0              2.4942626      11.956978    
    111500   1.2157595      0.63219923     0              2.454948       12.144026    
    112000   1.1986182      0.6247986      0              2.421848       11.870375    
    112500   1.1644086      0.6309085      0              2.3766686      11.849758    
    113000   1.1465075      0.62968731     0              2.3486089      11.81795     
    113500   1.1481868      0.59039437     0              2.3118337      11.302938    
    114000   1.1322585      0.6033734      0              2.3009318      11.464726    
    114500   1.1058269      0.60586278     0              2.2637931      11.614176    
    115000   1.1056254      0.57986258     0              2.237491       11.231682    
    115500   1.0707031      0.56898222     0              2.1742527      11.027747    
    116000   1.0756264      0.57266773     0              2.1853195      11.09198     
    116500   1.0766387      0.52026587     0              2.1344353      10.58206     
    117000   1.0619979      0.5595754      0              2.1517945      10.963561    
    117500   1.0717362      0.54460312     0              2.1514225      10.766238    
    118000   1.0636135      0.53787159     0              2.1325128      10.769152    
    118500   1.0251706      0.54509111     0              2.0820961      10.688162    
    119000   1.0357735      0.48636992     0              2.0392716      10.025608    
    119500   0.99149534     0.53285408     0              2.0193709      10.482135    
    120000   0.99854428     0.49403193     0              1.991117       10.077266    
    120500   0.97146494     0.4634553      0              1.9199412      9.8242587    
    121000   0.9063478      0.47389725     0              1.8327551      9.6488735    
    121500   0.90806264     0.47474968     0              1.8361786      9.8276493    
    122000   0.90998197     0.43007562     0              1.7943821      9.1809211    
    122500   0.88906659     0.43853294     0              1.7714817      9.3393759    
    123000   0.88187426     0.42414048     0              1.746306       9.0607073    
    123500   0.84659264     0.4398068      0              1.7090757      9.2553698    
    124000   0.84679675     0.42638006     0              1.695955       9.1304269    
    124500   0.85945541     0.38650859     0              1.6750622      8.4259401    
    125000   0.84807062     0.42527471     0              1.6967595      8.9985599    
    125500   0.81994857     0.43227283     0              1.6615951      9.0629465    
    126000   0.79206503     0.3928771      0              1.5803945      8.5930596    
    126500   0.79724568     0.37797232     0              1.5732569      8.3549661    
    127000   0.79033223     0.38083543     0              1.5657549      8.4631283    
    127500   0.7683147      0.34747215     0              1.4993815      7.9424622    
    128000   0.75262103     0.37019186     0              1.4985722      8.1049397    
    128500   0.71450268     0.34190472     0              1.4131354      7.7422261    
    129000   0.70508498     0.35736042     0              1.4144715      7.9930743    
    129500   0.71582399     0.32774386     0              1.4009555      7.6266871    
    130000   0.69690731     0.34157837     0              1.3864289      7.6975719    
    130500   0.66960171     0.29754098     0              1.3014531      7.0536261    
    131000   0.65538051     0.33510956     0              1.3177003      7.536362     
    131500   0.63870508     0.29404625     0              1.2516361      7.0193929    
    132000   0.65862374     0.29594606     0              1.2833993      7.0165851    
    132500   0.60458557     0.28463223     0              1.1910678      6.9075812    
    133000   0.59367755     0.27347198     0              1.1635535      6.7522403    
    133500   0.57512667     0.26841379     0              1.1306826      6.6533307    
    134000   0.5676739      0.24922156     0              1.1003166      6.2062465    
    134500   0.55947974     0.24286382     0              1.0816737      6.2035596    
    135000   0.54931842     0.22437634     0              1.0479516      5.8889569    
    135500   0.53770715     0.2257625      0              1.0319294      5.8865974    
    136000   0.49798459     0.22848624     0              0.97509839     5.9019296    
    136500   0.49691033     0.20319567     0              0.94819721     5.4389828    
    137000   0.471817       0.19967345     0              0.90705338     5.3590173    
    137500   0.46002883     0.19323977     0              0.88294608     5.3061317    
    138000   0.43663702     0.19002359     0              0.84465932     5.2184266    
    138500   0.4286907      0.18254445     0              0.82526653     5.0885674    
    139000   0.42511356     0.16392366     0              0.80128265     4.729432     
    139500   0.4060158      0.15527071     0              0.76399703     4.5416038    
    140000   0.38732978     0.1545908      0              0.73530178     4.5123597    
    140500   0.36840343     0.14971263     0              0.70204796     4.455193     
    141000   0.35737402     0.14345159     0              0.67925088     4.3005557    
    141500   0.35624523     0.13514375     0              0.66925067     4.1762082    
    142000   0.32830058     0.12812963     0              0.62034005     3.859415     
    142500   0.32267068     0.12199532     0              0.60576501     3.8354959    
    143000   0.303303       0.10155778     0              0.55629014     3.4213304    
    143500   0.29191853     0.10018252     0              0.53784652     3.4653707    
    144000   0.2676667      0.10035609     0              0.50166009     3.3038319    
    144500   0.2591027      0.090103289    0              0.47856757     3.1421461    
    145000   0.24750536     0.080686131    0              0.45176289     2.9178034    
    145500   0.22750159     0.079032768    0              0.42011852     2.8516535    
    146000   0.2180499      0.072598566    0              0.39951372     2.7405218    
    146500   0.20168758     0.065458285    0              0.36784193     2.51569      
    147000   0.1865269      0.057132935    0              0.33678667     2.3238871    
    147500   0.17551192     0.051263046    0              0.31440237     2.1440489    
    148000   0.15727386     0.048974159    0              0.28476975     2.044151     
    148500   0.14675625     0.041538675    0              0.26156557     1.835743     
    149000   0.13082622     0.036896675    0              0.23304019     1.6863581    
    149500   0.11710826     0.029851317    0              0.20542794     1.4797049    
    150000   0.10360241     0.023423175    0              0.17875091     1.2668654    
Loop time of 6.30557 on 10 procs for 100000 steps with 2048 atoms

Performance: 13702162.780 tau/day, 15858.985 timesteps/s, 32.479 Matom-step/s
99.5% CPU use with 10 MPI tasks x 1 OpenMP threads

MPI task timing breakdown:
Section |  min time  |  avg time  |  max time  |%varavg| %total
---------------------------------------------------------------
Pair    | 0.83899    | 0.86261    | 0.89394    |   2.2 | 13.68
Neigh   | 2.8605     | 2.9022     | 3.0296     |   2.7 | 46.03
Comm    | 1.6461     | 1.7402     | 1.8033     |   3.6 | 27.60
Output  | 0.025868   | 0.026006   | 0.027032   |   0.2 |  0.41
Modify  | 0.47723    | 0.49869    | 0.51498    |   1.7 |  7.91
Other   |            | 0.2759     |            |       |  4.38

Nlocal:          204.8 ave         213 max         199 min
Histogram: 4 0 1 0 0 1 2 0 1 1
Nghost:          500.5 ave         513 max         482 min
Histogram: 1 0 0 1 3 0 1 0 2 2
Neighs:         1057.4 ave        1108 max        1012 min
Histogram: 1 0 2 2 1 1 1 0 1 1

Total # of neighbors = 10574
Ave neighs/atom = 5.1630859
Neighbor list builds = 28159
Dangerous builds = 0
Total wall time: 0:00:10
