ITEM: TIMESTEP
100000
ITEM: NUMBER OF ATOMS
400
ITEM: BOX BOUNDS pp pp pp
0.0000000000000000e+00 2.5819888974716111e+01
0.0000000000000000e+00 2.5819888974716111e+01
-6.4549722436790280e-01 6.4549722436790280e-01
ITEM: ATOMS id type xs ys zs
394 1 0.0832741 0.0197182 0.5
89 1 0.125828 0.00521759 0.5
306 1 0.159383 0.0204929 0.5
321 1 0.242565 0.0123261 0.5
261 1 0.374709 0.0232819 0.5
270 1 0.00990086 0.0403404 0.5
243 1 0.0494588 0.0445113 0.5
196 1 0.126548 0.0498766 0.5
189 1 0.202427 0.0341274 0.5
379 1 0.237474 0.0564655 0.5
285 1 0.270231 0.0379137 0.5
279 1 0.337498 0.0345827 0.5
174 1 0.0933466 0.065828 0.5
138 1 0.189847 0.0700947 0.5
114 1 0.311172 0.0638957 0.5
132 1 0.373898 0.0770153 0.5
10 1 0.449893 0.0655617 0.5
151 1 0.0299979 0.108632 0.5
212 1 0.0726866 0.102392 0.5
256 1 0.110968 0.106427 0.5
37 1 0.247224 0.0974508 0.5
389 1 0.337365 0.10013 0.5
177 1 0.0686949 0.142101 0.5
344 1 0.138774 0.135952 0.5
134 1 0.182499 0.114821 0.5
131 1 0.231745 0.13767 0.5
354 1 0.296711 0.138663 0.5
86 1 0.372689 0.125075 0.5
54 1 0.413441 0.120218 0.5
103 1 0.462294 0.125383 0.5
392 1 0.0305095 0.151781 0.5
68 1 0.175653 0.150871 0.5
77 1 0.263429 0.166159 0.5
56 1 0.386378 0.165519 0.5
341 1 0.0936775 0.197315 0.5
167 1 0.153546 0.183694 0.5
44 1 0.195283 0.190827 0.5
334 1 0.347898 0.198678 0.5
82 1 0.423109 0.184365 0.5
182 1 0.464616 0.17675 0.5
264 1 0.00689388 0.227019 0.5
310 1 0.243486 0.215076 0.5
73 1 0.278657 0.206898 0.5
275 1 0.406489 0.220824 0.5
142 1 0.455425 0.2177 0.5
108 1 0.136924 0.242383 0.5
281 1 0.192167 0.236856 0.5
160 1 0.275661 0.252745 0.5
328 1 0.318041 0.238797 0.5
180 1 0.353139 0.248065 0.5
205 1 0.0776421 0.277375 0.5
395 1 0.118437 0.283941 0.5
262 1 0.158255 0.282282 0.5
137 1 0.232371 0.264525 0.5
150 1 0.33754 0.284696 0.5
15 1 0.380672 0.275776 0.5
313 1 0.423482 0.285457 0.5
55 1 0.457065 0.269105 0.5
200 1 0.225455 0.304502 0.5
297 1 0.299743 0.288984 0.5
42 1 0.490866 0.302319 0.5
272 1 0.0236504 0.33846 0.5
164 1 0.0743686 0.325029 0.5
237 1 0.125044 0.32473 0.5
278 1 0.333905 0.338044 0.5
340 1 0.365642 0.316931 0.5
194 1 0.413092 0.324195 0.5
230 1 0.100414 0.356828 0.5
85 1 0.159645 0.344499 0.5
368 1 0.204388 0.346729 0.5
109 1 0.254606 0.350007 0.5
155 1 0.315845 0.371117 0.5
81 1 0.409962 0.365384 0.5
186 1 0.457615 0.353902 0.5
98 1 0.136036 0.373837 0.5
209 1 0.259987 0.396868 0.5
14 1 0.343144 0.39896 0.5
80 1 0.379189 0.385886 0.5
72 1 0.017175 0.404451 0.5
171 1 0.104289 0.401196 0.5
371 1 0.162795 0.40255 0.5
128 1 0.300541 0.414648 0.5
376 1 0.466839 0.401645 0.5
1 1 0.0655564 0.437209 0.5
7 1 0.120998 0.4405 0.5
129 1 0.161919 0.440064 0.5
351 1 0.210013 0.454062 0.5
22 1 0.248471 0.433859 0.5
34 1 0.288729 0.451683 0.5
308 1 0.35398 0.445145 0.5
40 1 0.0277414 0.467309 0.5
31 1 0.0848569 0.475252 0.5
133 1 0.122446 0.485581 0.5
67 1 0.253753 0.471186 0.5
301 1 0.354213 0.482641 0.5
388 1 0.393351 0.479346 0.5
283 1 0.46325 0.457843 0.5
335 1 0.0345262 0.512004 0.5
28 1 0.170754 0.509821 0.5
146 1 0.312269 0.497855 0.5
199 1 0.45311 0.497801 0.5
79 1 0.0662764 0.54138 0.5
365 1 0.103793 0.520284 0.5
233 1 0.143417 0.542195 0.5
280 1 0.276568 0.520888 0.5
25 1 0.370738 0.528944 0.5
50 1 0.414809 0.520907 0.5
178 1 0.493829 0.519367 0.5
21 1 0.183 0.554954 0.5
323 1 0.231887 0.551631 0.5
358 1 0.323888 0.543852 0.5
386 1 0.454956 0.562834 0.5
95 1 0.0434615 0.573756 0.5
336 1 0.0821362 0.580157 0.5
24 1 0.135855 0.580196 0.5
274 1 0.215651 0.583403 0.5
159 1 0.264397 0.577139 0.5
157 1 0.322913 0.591971 0.5
357 1 0.38025 0.582449 0.5
225 1 0.0800265 0.622115 0.5
228 1 0.174601 0.609712 0.5
324 1 0.241858 0.620487 0.5
183 1 0.278521 0.6137 0.5
293 1 0.352883 0.620069 0.5
236 1 0.4027 0.626132 0.5
317 1 0.44375 0.606205 0.5
45 1 0.038504 0.641418 0.5
218 1 0.130451 0.643683 0.5
176 1 0.19897 0.650196 0.5
305 1 0.436622 0.647072 0.5
367 1 0.480195 0.649557 0.5
135 1 0.0196521 0.676613 0.5
219 1 0.0744742 0.677696 0.5
287 1 0.257895 0.663391 0.5
350 1 0.321693 0.671866 0.5
227 1 0.395243 0.667575 0.5
83 1 0.454343 0.684619 0.5
144 1 0.125858 0.695346 0.5
229 1 0.188714 0.688474 0.5
106 1 0.224702 0.697257 0.5
325 1 0.302616 0.709605 0.5
181 1 0.362606 0.69186 0.5
216 1 0.412942 0.702016 0.5
185 1 0.0439832 0.722608 0.5
119 1 0.0936202 0.728669 0.5
286 1 0.25029 0.734645 0.5
51 1 0.342911 0.741563 0.5
319 1 0.382478 0.727403 0.5
149 1 0.477345 0.716429 0.5
38 1 0.0127 0.75308 0.5
382 1 0.0787487 0.765207 0.5
87 1 0.176189 0.755506 0.5
257 1 0.291339 0.756992 0.5
255 1 0.404516 0.75654 0.5
147 1 0.460463 0.754219 0.5
43 1 0.0383605 0.781734 0.5
156 1 0.135241 0.780319 0.5
288 1 0.212415 0.779149 0.5
20 1 0.248904 0.783897 0.5
304 1 0.365614 0.779109 0.5
3 1 0.435505 0.786379 0.5
215 1 0.0560656 0.819694 0.5
29 1 0.144668 0.81809 0.5
372 1 0.181162 0.82771 0.5
58 1 0.300524 0.805379 0.5
399 1 0.368665 0.825561 0.5
320 1 0.399213 0.804665 0.5
97 1 0.469981 0.810536 0.5
356 1 0.018051 0.842661 0.5
166 1 0.0883974 0.847107 0.5
163 1 0.125337 0.854956 0.5
226 1 0.217116 0.831242 0.5
374 1 0.29169 0.843879 0.5
277 1 0.0418777 0.883178 0.5
175 1 0.224807 0.882182 0.5
8 1 0.266911 0.871802 0.5
36 1 0.343902 0.878346 0.5
377 1 0.074288 0.905533 0.5
353 1 0.111259 0.909535 0.5
282 1 0.145789 0.889752 0.5
2 1 0.28459 0.906316 0.5
113 1 0.354933 0.914197 0.5
251 1 0.385814 0.887652 0.5
346 1 0.432362 0.888652 0.5
168 1 0.471953 0.893229 0.5
214 1 0.00921096 0.917399 0.5
153 1 0.165752 0.933972 0.5
267 1 0.209349 0.926681 0.5
352 1 0.319824 0.923129 0.5
391 1 0.392747 0.927467 0.5
268 1 0.434321 0.93827 0.5
101 1 0.491017 0.928659 0.5
71 1 0.0219666 0.957858 0.5
111 1 0.123077 0.956789 0.5
223 1 0.197655 0.966771 0.5
173 1 0.0118483 0.995318 0.5
332 1 0.083106 0.972632 0.5
13 1 0.157244 0.978282 0.5
363 1 0.25193 0.973127 0.5
47 1 0.285468 0.993147 0.5
342 1 0.324436 0.991996 0.5
63 1 0.365918 0.978694 0.5
260 1 0.440964 0.980112 0.5
289 1 0.482476 0.974336 0.5
148 1 0.69391 0.027656 0.5
242 1 0.737963 0.00446268 0.5
140 1 0.780237 0.0126586 0.5
369 1 0.821987 0.0226659 0.5
290 1 0.503207 0.0524254 0.5
378 1 0.556413 0.0522673 0.5
193 1 0.624639 0.0300072 0.5
345 1 0.742992 0.0527848 0.5
220 1 0.854339 0.0487812 0.5
102 1 0.97062 0.0333556 0.5
161 1 0.60037 0.0656123 0.5
302 1 0.654365 0.0648553 0.5
347 1 0.696545 0.0742184 0.5
311 1 0.799893 0.0634045 0.5
184 1 0.918526 0.0617128 0.5
93 1 0.519724 0.113302 0.5
23 1 0.565154 0.0982693 0.5
84 1 0.643107 0.111191 0.5
121 1 0.717188 0.107019 0.5
298 1 0.848865 0.087102 0.5
234 1 0.892326 0.100141 0.5
239 1 0.962576 0.102654 0.5
330 1 0.668529 0.136973 0.5
355 1 0.748049 0.136373 0.5
396 1 0.786941 0.120102 0.5
253 1 0.827366 0.116197 0.5
381 1 0.926466 0.119763 0.5
74 1 0.987469 0.136491 0.5
338 1 0.518689 0.160411 0.5
123 1 0.603896 0.143848 0.5
6 1 0.703873 0.16355 0.5
299 1 0.845804 0.150525 0.5
294 1 0.941575 0.156863 0.5
107 1 0.59645 0.180774 0.5
348 1 0.734962 0.190491 0.5
361 1 0.769938 0.179558 0.5
136 1 0.819399 0.186587 0.5
61 1 0.856504 0.192111 0.5
124 1 0.907229 0.175033 0.5
217 1 0.956452 0.192991 0.5
263 1 0.504168 0.215195 0.5
170 1 0.546343 0.226876 0.5
154 1 0.585523 0.224119 0.5
316 1 0.681318 0.200452 0.5
252 1 0.794642 0.227575 0.5
16 1 0.893446 0.215538 0.5
271 1 0.644056 0.232907 0.5
292 1 0.717225 0.246128 0.5
70 1 0.855138 0.255102 0.5
141 1 0.904413 0.250654 0.5
127 1 0.55381 0.265117 0.5
90 1 0.764863 0.272848 0.5
35 1 0.996888 0.264152 0.5
33 1 0.539264 0.309034 0.5
143 1 0.661888 0.312437 0.5
62 1 0.711041 0.303382 0.5
76 1 0.769823 0.312085 0.5
60 1 0.882163 0.311095 0.5
187 1 0.965804 0.286978 0.5
312 1 0.995644 0.312341 0.5
169 1 0.624478 0.339217 0.5
398 1 0.524411 0.355295 0.5
235 1 0.57833 0.342879 0.5
329 1 0.698646 0.363972 0.5
213 1 0.742959 0.345288 0.5
266 1 0.831393 0.343292 0.5
112 1 0.89929 0.363171 0.5
337 1 0.934253 0.348275 0.5
339 1 0.981277 0.355263 0.5
246 1 0.521464 0.396492 0.5
221 1 0.60343 0.376124 0.5
91 1 0.662658 0.373302 0.5
198 1 0.731311 0.392132 0.5
9 1 0.808815 0.392789 0.5
96 1 0.852315 0.388487 0.5
41 1 0.567892 0.400403 0.5
46 1 0.695732 0.409179 0.5
202 1 0.765422 0.421699 0.5
240 1 0.982481 0.420603 0.5
26 1 0.505326 0.433078 0.5
197 1 0.588505 0.440284 0.5
245 1 0.647319 0.445418 0.5
59 1 0.693814 0.446759 0.5
326 1 0.728601 0.430399 0.5
232 1 0.856811 0.448411 0.5
327 1 0.898021 0.435634 0.5
122 1 0.942929 0.447381 0.5
172 1 0.54876 0.464225 0.5
248 1 0.636853 0.485252 0.5
53 1 0.822362 0.474843 0.5
373 1 0.904647 0.474223 0.5
201 1 0.984613 0.460294 0.5
254 1 0.542539 0.505255 0.5
120 1 0.582796 0.48665 0.5
4 1 0.659964 0.513776 0.5
49 1 0.705264 0.494395 0.5
27 1 0.743613 0.489229 0.5
204 1 0.59638 0.520961 0.5
115 1 0.695103 0.537209 0.5
333 1 0.74916 0.52907 0.5
11 1 0.796081 0.521671 0.5
117 1 0.884962 0.530203 0.5
385 1 0.933543 0.542076 0.5
315 1 0.962411 0.515433 0.5
145 1 0.541908 0.562706 0.5
231 1 0.656562 0.563835 0.5
309 1 0.819733 0.556443 0.5
126 1 0.870575 0.566188 0.5
284 1 0.986354 0.544957 0.5
190 1 0.509318 0.585785 0.5
238 1 0.5857 0.575022 0.5
48 1 0.769052 0.583144 0.5
12 1 0.81011 0.593688 0.5
349 1 0.936447 0.586767 0.5
139 1 0.99724 0.596066 0.5
247 1 0.531707 0.621942 0.5
366 1 0.569605 0.611068 0.5
75 1 0.664707 0.607622 0.5
66 1 0.856067 0.612404 0.5
39 1 0.897555 0.616148 0.5
207 1 0.605517 0.632629 0.5
383 1 0.693815 0.637031 0.5
118 1 0.761323 0.644032 0.5
64 1 0.810964 0.656276 0.5
165 1 0.874585 0.650453 0.5
192 1 0.912937 0.654635 0.5
94 1 0.960735 0.638665 0.5
65 1 0.996869 0.646361 0.5
222 1 0.52636 0.663861 0.5
296 1 0.700699 0.678996 0.5
322 1 0.847067 0.677022 0.5
158 1 0.540843 0.698688 0.5
303 1 0.666179 0.694994 0.5
130 1 0.737721 0.686753 0.5
99 1 0.826392 0.708249 0.5
370 1 0.943252 0.698705 0.5
387 1 0.558723 0.734622 0.5
269 1 0.607728 0.715285 0.5
380 1 0.644615 0.728522 0.5
393 1 0.714299 0.726863 0.5
203 1 0.768757 0.735014 0.5
5 1 0.891702 0.714552 0.5
191 1 0.982781 0.717221 0.5
30 1 0.50131 0.743781 0.5
69 1 0.613564 0.751245 0.5
400 1 0.845305 0.743379 0.5
179 1 0.886533 0.763177 0.5
362 1 0.954621 0.764227 0.5
359 1 0.533754 0.772353 0.5
265 1 0.580844 0.777622 0.5
249 1 0.638912 0.79481 0.5
211 1 0.705298 0.785553 0.5
331 1 0.76116 0.787753 0.5
18 1 0.820476 0.775954 0.5
78 1 0.998273 0.790724 0.5
241 1 0.603196 0.822027 0.5
152 1 0.672239 0.814293 0.5
210 1 0.789218 0.821779 0.5
276 1 0.893369 0.80092 0.5
19 1 0.50709 0.841695 0.5
291 1 0.565451 0.844744 0.5
125 1 0.712193 0.835475 0.5
57 1 0.863188 0.834371 0.5
32 1 0.918009 0.841565 0.5
52 1 0.974846 0.829141 0.5
17 1 0.571673 0.882588 0.5
195 1 0.60337 0.863864 0.5
104 1 0.644006 0.862298 0.5
390 1 0.747801 0.857323 0.5
300 1 0.785449 0.862585 0.5
375 1 0.8344 0.860207 0.5
307 1 0.87622 0.874644 0.5
250 1 0.989405 0.873547 0.5
92 1 0.517773 0.900441 0.5
360 1 0.614172 0.906621 0.5
318 1 0.669567 0.893358 0.5
100 1 0.716226 0.899769 0.5
110 1 0.770165 0.90297 0.5
206 1 0.816004 0.903511 0.5
105 1 0.900229 0.911069 0.5
384 1 0.93951 0.886979 0.5
259 1 0.569358 0.924643 0.5
258 1 0.642343 0.940424 0.5
273 1 0.857297 0.923218 0.5
314 1 0.963582 0.92032 0.5
188 1 0.609269 0.956273 0.5
364 1 0.708497 0.946703 0.5
397 1 0.788916 0.949464 0.5
244 1 0.887987 0.950529 0.5
162 1 0.935767 0.947308 0.5
295 1 0.973088 0.964257 0.5
88 1 0.517051 0.996969 0.5
224 1 0.700723 0.99247 0.5
116 1 0.816497 0.976076 0.5
208 1 0.857618 0.99507 0.5
343 1 0.912664 0.990088 0.5
