LAMMPS (15 Sep 2022)
OMP_NUM_THREADS environment is not set. Defaulting to 1 thread. (src/comm.cpp:98)
  using 1 OpenMP thread(s) per MPI task
# 2d WCA system, random initial configuration

#variable density equal 0.5
variable initial_temperature equal 3.0
variable final_temperature equal 0.1
variable dt equal 0.01
variable tau equal 100*${dt}
variable tau equal 100*0.01
variable thermo_time equal 50000*${dt}
variable thermo_time equal 50000*0.01
variable equil_steps equal 50000
variable run_steps equal 100000

units           lj
atom_style      atomic
dimension       2

lattice         sq ${density}
lattice         sq 0.6
Lattice spacing in x,y,z = 1.2909944 1.2909944 1.2909944
region          box block 0 20 0 20 -0.5 0.5
# number of atom types
create_box      1 box
Created orthogonal box = (0 0 -0.64549722) to (25.819889 25.819889 0.64549722)
  2 by 5 by 1 MPI processor grid
create_atoms    1 box
Created 400 atoms
  using lattice units in orthogonal box = (0 0 -0.64549722) to (25.819889 25.819889 0.64549722)
  create_atoms CPU = 0.000 seconds
mass 1 1.0

velocity all create ${initial_temperature} 12345
velocity all create 3 12345

pair_style      lj/cut 1.0
#type_1 type_2 epsilon sigma cutoff
pair_coeff      1 1 10.0 0.89089871814 1.0
pair_modify shift yes

timestep ${dt}
timestep 0.01
thermo ${thermo_time}
thermo 500

fix 1 all nvt temp ${initial_temperature} ${initial_temperature} ${tau}
fix 1 all nvt temp 3 ${initial_temperature} ${tau}
fix 1 all nvt temp 3 3 ${tau}
fix 1 all nvt temp 3 3 1
run ${equil_steps}
run 50000
Generated 0 of 0 mixed pair_coeff terms from geometric mixing rule
Neighbor list info ...
  update: every = 1 steps, delay = 0 steps, check = yes
  max neighbors/atom: 2000, page size: 100000
  master list distance cutoff = 1.3
  ghost atom cutoff = 1.3
  binsize = 0.65, bins = 40 40 2
  1 neighbor lists, perpetual/occasional/extra = 1 0 0
  (1) pair lj/cut, perpetual
      attributes: half, newton on
      pair build: half/bin/atomonly/newton
      stencil: half/bin/2d
      bin: standard
Per MPI rank memory allocation (min/avg/max) = 3.048 | 3.048 | 3.048 Mbytes
   Step          Temp          E_pair         E_mol          TotEng         Press     
         0   3              0              0              2.9925         1.7955       
       500   2.9628645      0.2407737      0              3.196231       4.9536377    
      1000   2.9312592      0.37032999     0              3.2942611      5.7944935    
      1500   3.0680295      0.27596781     0              3.3363272      5.0868359    
      2000   3.0807995      0.34234175     0              3.4154393      5.4944678    
      2500   3.273408       0.34150075     0              3.6067252      5.6082589    
      3000   3.3484529      0.32584848     0              3.6659303      5.8097275    
      3500   2.9764071      0.31224625     0              3.2812123      5.4393051    
      4000   2.96617        0.29674924     0              3.2555038      5.2953906    
      4500   2.9682642      0.33163737     0              3.2924809      5.5429594    
      5000   2.9359219      0.33796644     0              3.2665485      5.7131417    
      5500   2.8952969      0.30628316     0              3.1943418      5.3264167    
      6000   2.7580697      0.26064585     0              3.0118204      4.8350955    
      6500   2.7385146      0.21936327     0              2.9510316      4.4615958    
      7000   2.8181581      0.37064487     0              3.1817575      5.7909121    
      7500   2.9621964      0.28387432     0              3.2386652      5.1216149    
      8000   2.9899587      0.3062704      0              3.2887542      5.4530524    
      8500   3.1123921      0.36836263     0              3.4729738      5.6775559    
      9000   3.4084361      0.27124584     0              3.6711608      5.1653604    
      9500   3.2034883      0.32064129     0              3.5161209      5.5859935    
     10000   3.225998       0.19327572     0              3.4112088      4.6351523    
     10500   3.1510783      0.29887014     0              3.4420707      5.277001     
     11000   3.0678756      0.330513       0              3.3907189      5.7133482    
     11500   3.0074905      0.26105643     0              3.2610282      5.0493849    
     12000   2.8514856      0.2754246      0              3.1197815      4.9877965    
     12500   2.7356985      0.27052489     0              2.9993841      4.914188     
     13000   2.8311917      0.32576466     0              3.1498784      5.4705053    
     13500   2.8605918      0.23936553     0              3.0928059      4.6078787    
     14000   2.9624992      0.24640081     0              3.2014938      4.8616136    
     14500   2.8453651      0.35777431     0              3.196026       5.7431365    
     15000   3.0303468      0.23253245     0              3.2553034      4.7085995    
     15500   2.8725825      0.22339759     0              3.0887987      4.8197422    
     16000   2.5727218      0.26926136     0              2.8355513      4.725405     
     16500   2.835107       0.3001809      0              3.1282001      5.1737282    
     17000   2.925598       0.28474999     0              3.203034       4.9187531    
     17500   2.8419445      0.3731373      0              3.2079769      5.4928847    
     18000   2.8223063      0.32735141     0              3.142602       5.4952877    
     18500   2.9532044      0.36526686     0              3.3110882      5.6937224    
     19000   2.978935       0.43112598     0              3.4026136      6.6533502    
     19500   3.1626931      0.31454949     0              3.4693359      5.4664977    
     20000   3.1190994      0.27043761     0              3.3817392      5.0108916    
     20500   3.1877519      0.30379669     0              3.4835792      5.3593366    
     21000   3.0226038      0.26371336     0              3.2787606      4.7400439    
     21500   2.9007114      0.30641974     0              3.1998794      5.3380951    
     22000   2.8001266      0.39944628     0              3.1925725      6.1145627    
     22500   2.8705274      0.28269132     0              3.1460424      5.0446208    
     23000   2.8586388      0.3429776      0              3.1944698      5.5275344    
     23500   2.8987337      0.25572097     0              3.1472078      4.7634167    
     24000   3.1042158      0.37312248     0              3.4695777      5.9873876    
     24500   3.1449708      0.32678571     0              3.4638941      5.7849332    
     25000   3.2117296      0.22170171     0              3.425402       4.7774931    
     25500   2.8456884      0.33081945     0              3.1693936      5.4652416    
     26000   2.8007367      0.21960517     0              3.01334        4.5528055    
     26500   2.8183483      0.3492363      0              3.1605387      5.5720058    
     27000   2.9481966      0.22408935     0              3.1649155      4.7242573    
     27500   2.628538       0.35947231     0              2.9814389      5.5617465    
     28000   2.9204719      0.26822351     0              3.1813942      5.0457583    
     28500   3.0432063      0.27990714     0              3.3155054      5.0627289    
     29000   2.8679429      0.34660046     0              3.2073735      5.3235485    
     29500   2.9803836      0.33300379     0              3.3059365      5.3261971    
     30000   3.0626266      0.21194015     0              3.2669102      4.3125615    
     30500   2.8939147      0.23782312     0              3.124503       4.5495318    
     31000   2.9681074      0.28670783     0              3.247395       5.0690584    
     31500   3.12034        0.26241871     0              3.3749579      5.1406287    
     32000   3.4036249      0.18052883     0              3.5756447      4.3882884    
     32500   3.0719411      0.37700655     0              3.4412678      5.9751974    
     33000   3.138273       0.37086682     0              3.5012942      5.8165937    
     33500   2.9217555      0.43823696     0              3.3526881      6.6150855    
     34000   2.9808673      0.2962889      0              3.269704       5.2942716    
     34500   2.9469692      0.36959667     0              3.3091984      5.9022952    
     35000   2.9439079      0.2249666      0              3.1615147      4.5198373    
     35500   2.6184141      0.33380523     0              2.9456733      5.2203951    
     36000   2.6831112      0.27986872     0              2.9562722      4.8423667    
     36500   2.8654487      0.31824974     0              3.1765348      5.2399929    
     37000   2.8518263      0.39017853     0              3.2348752      5.8201187    
     37500   3.0512572      0.25845939     0              3.3020884      4.9393181    
     38000   3.1063574      0.29154093     0              3.3901324      5.5280188    
     38500   3.3438508      0.40692297     0              3.7424141      6.4696174    
     39000   3.2232317      0.36680392     0              3.5819776      6.1914556    
     39500   3.0616237      0.33062725     0              3.3845969      5.4313293    
     40000   3.1323531      0.34200104     0              3.4665233      5.5667986    
     40500   3.0541429      0.30526256     0              3.3517701      5.3214475    
     41000   3.174005       0.303279       0              3.469349       5.357648     
     41500   3.0089351      0.34360916     0              3.3450219      5.7456335    
     42000   3.1173412      0.2327345      0              3.3422823      4.6681333    
     42500   3.0412065      0.30029017     0              3.3338936      5.3930922    
     43000   3.0031577      0.34529601     0              3.3409458      5.5925011    
     43500   3.0665129      0.21115935     0              3.270006       4.5907814    
     44000   2.8740679      0.33781235     0              3.204695       5.3422971    
     44500   2.8094404      0.24594946     0              3.0483662      4.7384676    
     45000   2.9226597      0.26194918     0              3.1773023      4.9915501    
     45500   2.9108513      0.33147456     0              3.2350487      5.4741399    
     46000   2.8575361      0.31381236     0              3.1642046      5.1391931    
     46500   3.035714       0.25288448     0              3.2810092      4.9675283    
     47000   2.948883       0.2853462      0              3.226857       5.4210592    
     47500   3.0249763      0.32343283     0              3.3408467      5.4325657    
     48000   2.9768286      0.34595586     0              3.3153424      5.6290468    
     48500   3.077619       0.29360653     0              3.3635314      5.275638     
     49000   3.0133398      0.40306277     0              3.4088693      5.7234728    
     49500   3.1006459      0.29434154     0              3.3872358      5.4566592    
     50000   3.2045438      0.31707363     0              3.5136061      5.4692006    
Loop time of 0.639664 on 10 procs for 50000 steps with 400 atoms

Performance: 67535408.181 tau/day, 78165.982 timesteps/s, 31.266 Matom-step/s
99.1% CPU use with 10 MPI tasks x 1 OpenMP threads

MPI task timing breakdown:
Section |  min time  |  avg time  |  max time  |%varavg| %total
---------------------------------------------------------------
Pair    | 0.032509   | 0.033734   | 0.036171   |   0.6 |  5.27
Neigh   | 0.075493   | 0.077518   | 0.084106   |   0.8 | 12.12
Comm    | 0.29888    | 0.3037     | 0.3079     |   0.5 | 47.48
Output  | 0.0010546  | 0.0014296  | 0.0046997  |   2.9 |  0.22
Modify  | 0.11265    | 0.1187     | 0.12567    |   1.0 | 18.56
Other   |            | 0.1046     |            |       | 16.35

Nlocal:             40 ave          42 max          35 min
Histogram: 1 0 0 0 0 3 0 2 0 4
Nghost:           33.8 ave          37 max          28 min
Histogram: 1 0 0 1 1 0 3 1 1 2
Neighs:           50.7 ave          65 max          41 min
Histogram: 2 1 2 1 0 1 1 0 1 1

Total # of neighbors = 507
Ave neighs/atom = 1.2675
Neighbor list builds = 16894
Dangerous builds = 0

unfix 1
dump           1 all atom ${run_steps} 2dWCA_T${final_temperature}_d${density}_N${run_steps}.lammpstrj
dump           1 all atom 100000 2dWCA_T${final_temperature}_d${density}_N${run_steps}.lammpstrj
dump           1 all atom 100000 2dWCA_T0.1_d${density}_N${run_steps}.lammpstrj
dump           1 all atom 100000 2dWCA_T0.1_d0.6_N${run_steps}.lammpstrj
dump           1 all atom 100000 2dWCA_T0.1_d0.6_N100000.lammpstrj
dump           2 all dcd ${thermo_time} 2dWCA_T${final_temperature}_d${density}_N${run_steps}.dcd
dump           2 all dcd 500 2dWCA_T${final_temperature}_d${density}_N${run_steps}.dcd
dump           2 all dcd 500 2dWCA_T0.1_d${density}_N${run_steps}.dcd
dump           2 all dcd 500 2dWCA_T0.1_d0.6_N${run_steps}.dcd
dump           2 all dcd 500 2dWCA_T0.1_d0.6_N100000.dcd
fix 1 all nvt temp ${initial_temperature} ${final_temperature} ${tau}
fix 1 all nvt temp 3 ${final_temperature} ${tau}
fix 1 all nvt temp 3 0.1 ${tau}
fix 1 all nvt temp 3 0.1 1

run ${run_steps}
run 100000
Generated 0 of 0 mixed pair_coeff terms from geometric mixing rule
Per MPI rank memory allocation (min/avg/max) = 3.071 | 3.071 | 3.071 Mbytes
   Step          Temp          E_pair         E_mol          TotEng         Press     
     50000   3.2045438      0.31707363     0              3.5136061      5.4692006    
     50500   3.0317201      0.30804356     0              3.3321844      5.1731092    
     51000   3.1501769      0.27374455     0              3.416046       5.2419377    
     51500   3.0040885      0.29758697     0              3.2941652      5.1912435    
     52000   3.193743       0.28160183     0              3.4673605      5.0376342    
     52500   2.9102403      0.35278068     0              3.2557454      5.6471134    
     53000   3.0350074      0.30092687     0              3.3283468      5.0605444    
     53500   3.042672       0.28157266     0              3.316638       5.2146435    
     54000   3.0509947      0.35385375     0              3.3972209      5.8924987    
     54500   2.7064928      0.39280413     0              3.0925307      5.8618765    
     55000   2.8031237      0.30725252     0              3.1033684      5.256878     
     55500   2.821567       0.24818471     0              3.0626978      4.8654887    
     56000   2.8312876      0.23885902     0              3.0630684      4.6648014    
     56500   2.7444067      0.25802671     0              2.9955724      4.9484124    
     57000   2.733834       0.26093086     0              2.9879303      4.9659387    
     57500   2.7083973      0.20959585     0              2.9112222      4.2485595    
     58000   2.8565775      0.25406878     0              3.1035048      4.8626953    
     58500   2.8230462      0.26793512     0              3.0839237      4.7894777    
     59000   2.9043036      0.31391736     0              3.2109602      5.2508039    
     59500   3.123916       0.23590506     0              3.3520112      4.855105     
     60000   2.8749203      0.27725144     0              3.1449845      4.5904854    
     60500   2.718169       0.31784319     0              3.0292168      5.2735548    
     61000   2.6728523      0.33795464     0              3.0041248      5.49891      
     61500   2.8583018      0.27731035     0              3.1284664      5.0023508    
     62000   2.9697071      0.2788617      0              3.2411445      5.1107329    
     62500   2.6654288      0.27599112     0              2.9347564      4.8010587    
     63000   2.8649441      0.20593703     0              3.0637188      4.3775352    
     63500   2.6598532      0.20651381     0              2.8597174      4.3139669    
     64000   2.6851433      0.28209433     0              2.9605248      5.0295865    
     64500   2.5785048      0.26911609     0              2.8411746      4.907962     
     65000   2.5311765      0.20481632     0              2.7296649      4.0663604    
     65500   2.2209925      0.26570396     0              2.481144       4.5568277    
     66000   2.3497022      0.24402978     0              2.5878578      4.3907994    
     66500   2.4081461      0.23499653     0              2.6371223      4.4901465    
     67000   2.4380276      0.25453234     0              2.6864649      4.5731894    
     67500   2.3752375      0.28125734     0              2.6505568      4.7841885    
     68000   2.41269        0.23491893     0              2.6415772      4.2342812    
     68500   2.3616966      0.20641704     0              2.5622094      3.970028     
     69000   2.2768652      0.26504894     0              2.5362219      4.559787     
     69500   2.2239746      0.16843919     0              2.3868538      3.6867864    
     70000   2.4150513      0.22689497     0              2.6359086      4.117922     
     70500   2.4661037      0.21353216     0              2.6734706      4.2284788    
     71000   2.4469644      0.24158191     0              2.6824289      4.5492635    
     71500   2.4888749      0.25742263     0              2.7400754      4.7523042    
     72000   2.5470816      0.27801341     0              2.8187273      4.8481339    
     72500   2.5727253      0.28179271     0              2.8480862      4.7523808    
     73000   2.3516098      0.21594613     0              2.5616769      4.001488     
     73500   2.3469477      0.1697543      0              2.5108346      3.8941083    
     74000   2.2795048      0.17931274     0              2.4531188      3.6336514    
     74500   2.3010549      0.17158762     0              2.4668899      3.8306818    
     75000   2.3163083      0.17813009     0              2.4886476      3.7746503    
     75500   2.2322236      0.156228       0              2.382871       3.5519171    
     76000   2.0783541      0.22635587     0              2.2995141      3.9259566    
     76500   2.1627589      0.17780987     0              2.3351619      3.6705429    
     77000   1.9963897      0.24850593     0              2.2399046      4.1845295    
     77500   2.2617961      0.15388225     0              2.4100239      3.4665984    
     78000   2.1512879      0.24074994     0              2.3866596      4.2104318    
     78500   2.2080718      0.21204454     0              2.4145962      3.9963157    
     79000   2.174933       0.21005499     0              2.3795506      4.2422994    
     79500   2.2072785      0.21980118     0              2.4215614      4.1170124    
     80000   2.2143711      0.19957458     0              2.4084097      3.8684648    
     80500   2.2832242      0.18633991     0              2.4638561      3.9000296    
     81000   2.1056469      0.22486985     0              2.3252527      4.1179747    
     81500   2.1732329      0.22376103     0              2.3915609      4.1068738    
     82000   2.311138       0.17851905     0              2.4838792      3.7610035    
     82500   2.2627882      0.18473045     0              2.4418617      3.8495066    
     83000   1.9375106      0.19957225     0              2.1322391      3.7346939    
     83500   1.9468951      0.24748429     0              2.1895121      4.1321871    
     84000   1.967134       0.15853851     0              2.1207547      3.3423969    
     84500   1.9908336      0.17996945     0              2.165826       3.6814709    
     85000   1.8967507      0.17311946     0              2.0651283      3.4636088    
     85500   1.7211619      0.13986504     0              1.856724       3.0888486    
     86000   1.7962793      0.23404899     0              2.0258376      3.9374153    
     86500   1.87358        0.17086521     0              2.0397613      3.3643986    
     87000   1.8975043      0.17395424     0              2.0667148      3.3724219    
     87500   1.8169599      0.16206232     0              1.9744799      3.2957392    
     88000   1.943          0.14977771     0              2.0879202      3.2723058    
     88500   1.9135926      0.18569007     0              2.0944987      3.6208171    
     89000   1.9951371      0.15990114     0              2.1500504      3.3940164    
     89500   2.1251305      0.15118819     0              2.2710059      3.3815749    
     90000   1.9521995      0.14985334     0              2.0971723      3.3311936    
     90500   1.8706523      0.1902575      0              2.0562332      3.6152573    
     91000   1.9461237      0.15120167     0              2.0924601      3.3403413    
     91500   1.8369786      0.22380615     0              2.0561923      3.9245124    
     92000   1.9555712      0.16558319     0              2.1162655      3.4570859    
     92500   1.8146877      0.17469132     0              1.9848424      3.7046967    
     93000   1.797723       0.12628124     0              1.9195099      2.9905317    
     93500   1.7470231      0.15853916     0              1.9011947      3.226855     
     94000   1.7468235      0.15764563     0              1.9001021      3.2616808    
     94500   1.7237799      0.17648801     0              1.8959585      3.5775631    
     95000   1.6265014      0.12637039     0              1.7488055      2.8138345    
     95500   1.6355702      0.16735902     0              1.7988403      3.4048364    
     96000   1.6463211      0.10588192     0              1.7480873      2.7674231    
     96500   1.5994286      0.15375733     0              1.7491873      3.1296057    
     97000   1.5725411      0.17001365     0              1.7386234      3.0654617    
     97500   1.6221567      0.13324028     0              1.7513416      2.8697163    
     98000   1.622711       0.14670324     0              1.7653575      3.0553925    
     98500   1.6885917      0.10194327     0              1.7863134      2.4967628    
     99000   1.6964608      0.14064876     0              1.8328684      3.0421009    
     99500   1.5794876      0.19687099     0              1.7724099      3.2902266    
    100000   1.5792458      0.14191118     0              1.7172088      2.961105     
    100500   1.4383471      0.16104265     0              1.5957939      3.0288029    
    101000   1.4290704      0.1025648      0              1.5280625      2.4985126    
    101500   1.4846693      0.10557835     0              1.586536       2.6001285    
    102000   1.4853699      0.13849693     0              1.6201534      2.8520826    
    102500   1.4604032      0.16179147     0              1.6185436      3.0638903    
    103000   1.4957888      0.16177232     0              1.6538217      3.1244392    
    103500   1.458688       0.12206241     0              1.5771037      2.5461736    
    104000   1.5050835      0.093869192    0              1.59519        2.3344374    
    104500   1.4556055      0.092700962    0              1.5446675      2.4173046    
    105000   1.471964       0.13096288     0              1.5992469      2.8150209    
    105500   1.3741732      0.13865161     0              1.5093894      2.752819     
    106000   1.4060324      0.081208769    0              1.4837261      2.2419765    
    106500   1.3760211      0.12607586     0              1.4986569      2.7442128    
    107000   1.354914       0.14799042     0              1.4995172      2.8611084    
    107500   1.4264929      0.13535972     0              1.5582864      2.7707212    
    108000   1.3479649      0.12034388     0              1.4649388      2.5963583    
    108500   1.310195       0.10174855     0              1.408668       2.4189041    
    109000   1.3322124      0.11242984     0              1.4413117      2.509504     
    109500   1.2731342      0.13606103     0              1.4060124      2.7938357    
    110000   1.3342596      0.10607237     0              1.4369963      2.4020212    
    110500   1.2944138      0.073820913    0              1.3649987      1.9932362    
    111000   1.2336489      0.10329731     0              1.3338621      2.427033     
    111500   1.1514941      0.07879232     0              1.2274077      2.0824447    
    112000   1.154247       0.080847169    0              1.2322085      2.0707259    
    112500   1.1284564      0.086830025    0              1.2124653      2.2469928    
    113000   1.1854896      0.068645802    0              1.2511717      1.8668088    
    113500   1.2043019      0.100264       0              1.3015551      2.3412063    
    114000   1.228084       0.066714066    0              1.2917279      2.030276     
    114500   1.1825325      0.10126464     0              1.2808408      2.291379     
    115000   1.2078828      0.045311961    0              1.2501751      1.553212     
    115500   1.1396829      0.071227017    0              1.2080607      2.0035887    
    116000   1.1077512      0.095233086    0              1.2002149      2.2199406    
    116500   1.066725       0.061389314    0              1.1254475      1.7402216    
    117000   1.0066314      0.050914504    0              1.0550293      1.589309     
    117500   0.96480593     0.082353648    0              1.0447476      1.8973461    
    118000   0.98825621     0.074504865    0              1.0602904      1.8830905    
    118500   1.0097916      0.070361519    0              1.0776287      1.8788934    
    119000   0.96432759     0.064209547    0              1.0261263      1.7605077    
    119500   0.96114195     0.075254139    0              1.0339932      1.8104874    
    120000   0.982103       0.050997738    0              1.0306455      1.6190013    
    120500   0.98231734     0.084142456    0              1.064004       1.9174763    
    121000   0.93308125     0.082754603    0              1.0135032      1.9816999    
    121500   0.96172707     0.07420237     0              1.0335251      1.8751182    
    122000   0.95143553     0.071006209    0              1.0200632      1.803552     
    122500   0.91904334     0.092856644    0              1.0096024      1.9096846    
    123000   0.80039989     0.083850916    0              0.8822498      1.9904892    
    123500   0.85425104     0.058320565    0              0.91043598     1.5527395    
    124000   0.82250443     0.044189268    0              0.86463743     1.4362881    
    124500   0.80125729     0.080290282    0              0.87954443     1.8930359    
    125000   0.78339276     0.0454506      0              0.82688488     1.3673555    
    125500   0.75280346     0.056618681    0              0.80754013     1.6101197    
    126000   0.75026017     0.055444215    0              0.80382874     1.5582787    
    126500   0.84460074     0.04544723     0              0.88793646     1.4159564    
    127000   0.81554088     0.048899949    0              0.86240197     1.4541701    
    127500   0.76512119     0.050247708    0              0.81345609     1.553556     
    128000   0.77149107     0.044310996    0              0.81387334     1.3202257    
    128500   0.67409815     0.041162392    0              0.7135753      1.2467006    
    129000   0.68812347     0.033963946    0              0.72036711     1.143206     
    129500   0.64676591     0.061521268    0              0.70667026     1.5834827    
    130000   0.66125632     0.060146142    0              0.71974933     1.5150637    
    130500   0.61333133     0.054337034    0              0.66613503     1.4302323    
    131000   0.64050703     0.04904942     0              0.68795519     1.3081895    
    131500   0.61359081     0.04460603     0              0.65666286     1.2408892    
    132000   0.60846919     0.055973662    0              0.66292168     1.4159373    
    132500   0.63861512     0.026932281    0              0.66395086     0.99312461   
    133000   0.61146961     0.042233772    0              0.65217471     1.2603714    
    133500   0.57891893     0.043820762    0              0.6212924      1.2359936    
    134000   0.5843802      0.045996882    0              0.62891613     1.295007     
    134500   0.58206118     0.023173764    0              0.60377979     0.92960047   
    135000   0.56772935     0.050103236    0              0.61641326     1.3312606    
    135500   0.53303047     0.034860666    0              0.56655856     1.0970029    
    136000   0.48649469     0.035189775    0              0.52046823     1.0331581    
    136500   0.48536891     0.027992948    0              0.51214844     0.91426129   
    137000   0.45873353     0.032532594    0              0.49011929     0.93083699   
    137500   0.42836431     0.02584493     0              0.45313833     0.88950627   
    138000   0.39587727     0.02569725     0              0.42058483     0.877436     
    138500   0.39769425     0.036757512    0              0.43345753     1.0282209    
    139000   0.417855       0.017447982    0              0.43425834     0.69601489   
    139500   0.41508638     0.021247013    0              0.43529568     0.79044776   
    140000   0.44617619     0.023102427    0              0.46816318     0.83506864   
    140500   0.3975836      0.027701876    0              0.42429151     0.89816691   
    141000   0.38063493     0.01365541     0              0.39333876     0.633575     
    141500   0.35053537     0.021921431    0              0.37158046     0.71799319   
    142000   0.32195409     0.029595483    0              0.35074468     0.84572869   
    142500   0.28948764     0.027768539    0              0.31653246     0.85361325   
    143000   0.30088208     0.014205655    0              0.31433553     0.56177275   
    143500   0.26633029     0.024046097    0              0.28971056     0.79817627   
    144000   0.26786724     0.0095360171   0              0.27673359     0.46715411   
    144500   0.26276678     0.011391656    0              0.27350152     0.5053956    
    145000   0.25586726     0.019856507    0              0.2750841      0.66587321   
    145500   0.22680692     0.011450021    0              0.23768992     0.51260199   
    146000   0.21524243     0.0095198113   0              0.22422414     0.43756326   
    146500   0.19211363     0.0067317138   0              0.19836506     0.34551394   
    147000   0.19168899     0.0043368347   0              0.1955466      0.30878706   
    147500   0.18276463     0.0055580439   0              0.18786576     0.3021264    
    148000   0.15836587     0.0074433285   0              0.16541328     0.37569217   
    148500   0.15379769     0.003534389    0              0.15694759     0.23541673   
    149000   0.13176448     0.0029195922   0              0.13435466     0.18643803   
    149500   0.11362178     0.002204749    0              0.11554248     0.19112      
    150000   0.095268431    0.0022116184   0              0.097241879    0.1806196    
Loop time of 1.17828 on 10 procs for 100000 steps with 400 atoms

Performance: 73326947.472 tau/day, 84869.152 timesteps/s, 33.948 Matom-step/s
99.3% CPU use with 10 MPI tasks x 1 OpenMP threads

MPI task timing breakdown:
Section |  min time  |  avg time  |  max time  |%varavg| %total
---------------------------------------------------------------
Pair    | 0.05756    | 0.059766   | 0.064512   |   0.8 |  5.07
Neigh   | 0.1095     | 0.1123     | 0.12217    |   1.0 |  9.53
Comm    | 0.55344    | 0.56078    | 0.56999    |   0.7 | 47.59
Output  | 0.014534   | 0.014617   | 0.015156   |   0.1 |  1.24
Modify  | 0.22259    | 0.23372    | 0.24859    |   1.5 | 19.84
Other   |            | 0.1971     |            |       | 16.73

Nlocal:             40 ave          43 max          38 min
Histogram: 3 0 2 0 2 0 0 0 1 2
Nghost:           31.4 ave          35 max          26 min
Histogram: 1 0 1 0 1 1 3 0 2 1
Neighs:           53.4 ave          67 max          40 min
Histogram: 2 0 0 2 2 1 0 0 2 1

Total # of neighbors = 534
Ave neighs/atom = 1.335
Neighbor list builds = 24616
Dangerous builds = 0
Total wall time: 0:00:01
