
Host: cs477.hpc.nyu.edu

Timers On : Sat Dec  2 14:11:54 2023
Timers Off: Sat Dec  2 14:11:55 2023

Wall Time:        0.40 seconds

                                                       Time (seconds)
Module                                       User      System        Wall        Calls

--------------------------------------------------------------------------------------

**************************************************************************************
