#     Step Nr.          Time[fs]        Kin.[a.u.]          Temp[K]            Pot.[a.u.]        Cons Qty[a.u.]        UsedTime[s]
         0            0.000000         0.275037913       300.000000000     -1102.859225837     -1102.584187924         0.000000000
         1            0.500000         0.307812926       335.749631300     -1102.900917386     -1102.588764726        55.478327584
         2            1.000000         0.348972058       380.644313258     -1102.977347682     -1102.591998876        11.782732923
         3            1.500000         0.398160797       434.297358895     -1103.031060171     -1102.591924301        10.289564334
         4            2.000000         0.397795452       433.898856093     -1103.057068150     -1102.591468492         9.403564453
         5            2.500000         0.403835418       440.487001709     -1103.068824172     -1102.591164612         9.461396124
         6            3.000000         0.415152203       452.830883091     -1103.069908581     -1102.590897744         9.498760585
         7            3.500000         0.406045902       442.898105689     -1103.063827551     -1102.590646191         8.707506407
         8            4.000000         0.385539034       420.530060748     -1103.054809081     -1102.590340755         8.688845448
         9            4.500000         0.376659328       410.844444533     -1103.047585503     -1102.590157391         8.624946523
        10            5.000000         0.361503921       394.313551823     -1103.043665996     -1102.590083750        11.145017698
        11            5.500000         0.370167863       403.763822610     -1103.047852824     -1102.590162759         8.702431094
        12            6.000000         0.366603544       399.876010836     -1103.052892458     -1102.590265603         8.655608125
        13            6.500000         0.352164259       384.126234430     -1103.059709335     -1102.590387718         7.907308094
        14            7.000000         0.342700304       373.803342703     -1103.065138714     -1102.590520441         7.927762844
        15            7.500000         0.357458227       389.900676128     -1103.067429131     -1102.590666734         7.884797134
        16            8.000000         0.358332849       390.854678337     -1103.070148662     -1102.590844684         7.870318346
        17            8.500000         0.341812697       372.835177923     -1103.069206592     -1102.590785462         7.895342931
        18            9.000000         0.324190533       353.613648966     -1103.068499311     -1102.590600229         7.914190911
        19            9.500000         0.312806810       341.196754535     -1103.068087243     -1102.590621714         7.906471096
        20           10.000000         0.318086045       346.955125447     -1103.070130905     -1102.591017334        11.269840196
        21           10.500000         0.328960273       358.816284486     -1103.070495930     -1102.591381760         7.867640633
        22           11.000000         0.311124609       339.361878523     -1103.065290315     -1102.591328634         7.922522943
        23           11.500000         0.307009522       334.873311412     -1103.055876222     -1102.590758005         7.891675558
        24           12.000000         0.301804923       329.196349662     -1103.050690599     -1102.590215992         7.867881339
        25           12.500000         0.283925446       309.694154692     -1103.056873086     -1102.590664282         7.921914056
        26           13.000000         0.290360344       316.713075635     -1103.067371733     -1102.591298256         7.870713782
        27           13.500000         0.316027671       344.709935784     -1103.075956022     -1102.591524524         7.861150701
        28           14.000000         0.302916981       330.409336919     -1103.079696634     -1102.591407233         7.916243721
        29           14.500000         0.298095289       325.150034144     -1103.081307866     -1102.591305664         7.939301684
        30           15.000000         0.299503883       326.686470894     -1103.078369433     -1102.591179295        10.197950277
        31           15.500000         0.311011810       339.238842631     -1103.074599732     -1102.591083196         7.900601637
        32           16.000000         0.304092318       331.691345615     -1103.071841688     -1102.591034579         7.887687232
        33           16.500000         0.295637215       322.468868511     -1103.071620883     -1102.591007553         7.915917464
        34           17.000000         0.298824962       325.945931244     -1103.075854884     -1102.591022754         7.883364949
        35           17.500000         0.295454538       322.269611664     -1103.081479521     -1102.591055441         7.870836638
        36           18.000000         0.313096113       341.512313820     -1103.090854381     -1102.591180422         7.175668236
        37           18.500000         0.337832520       368.493765031     -1103.100092852     -1102.591321315         7.902457241
        38           19.000000         0.329728313       359.654030527     -1103.106301196     -1102.591465581         7.877649065
        39           19.500000         0.329848372       359.784986326     -1103.111331787     -1102.591616484         7.910967086
        40           20.000000         0.319476082       348.471320724     -1103.116022963     -1102.591770904        10.207631823
        41           20.500000         0.334684742       365.060299033     -1103.118426761     -1102.591735111         7.874251727
        42           21.000000         0.335179108       365.599532589     -1103.117783816     -1102.591524574         7.907007407
        43           21.500000         0.319274551       348.251499158     -1103.117997202     -1102.591317326         7.105661411
        44           22.000000         0.306005474       333.778137389     -1103.124197528     -1102.591440665         7.880038984
        45           22.500000         0.313561817       342.020284917     -1103.132218891     -1102.591717688         7.905209914
        46           23.000000         0.316538532       345.267162675     -1103.141861222     -1102.591952204         7.858467896
        47           23.500000         0.329484052       359.387600880     -1103.152085508     -1102.592098264         7.127680112
        48           24.000000         0.349900682       381.657217882     -1103.159449573     -1102.592116280         7.179903168
        49           24.500000         0.341383612       372.367149396     -1103.163949805     -1102.592073552         7.107622277
        50           25.000000         0.338898524       369.656518964     -1103.165834993     -1102.592012203        11.247470282
        51           25.500000         0.326114330       355.712047675     -1103.166358863     -1102.591912161         7.871878229
        52           26.000000         0.318746638       347.675673253     -1103.168774391     -1102.591886725         7.928226270
        53           26.500000         0.335843980       366.324747434     -1103.171682224     -1102.591892865         7.896509048
        54           27.000000         0.326601655       356.243601638     -1103.176542677     -1102.591938094         7.868921366
        55           27.500000         0.313593736       342.055100705     -1103.182309580     -1102.591959963         7.965227004
        56           28.000000         0.302118960       329.538888084     -1103.190137354     -1102.592019046         7.969568904
        57           28.500000         0.319475707       348.470911349     -1103.196688279     -1102.592120398         7.871969312
        58           29.000000         0.321641257       350.833004077     -1103.197763501     -1102.592145324         7.155846912
        59           29.500000         0.324272091       353.702609053     -1103.197463257     -1102.592121772         7.913227953
        60           30.000000         0.321105231       350.248329461     -1103.195293716     -1102.592021082        10.165954940
        61           30.500000         0.320936202       350.063958723     -1103.194004733     -1102.591899474         7.929938909
        62           31.000000         0.331154586       361.209750318     -1103.191538542     -1102.591748156         7.116055045
        63           31.500000         0.333747544       364.038042231     -1103.190308314     -1102.591692645         7.135397367
        64           32.000000         0.338964376       369.728347399     -1103.192621326     -1102.591789291         7.873530641
        65           32.500000         0.343578035       374.760736274     -1103.195169333     -1102.591919759         7.906192482
        66           33.000000         0.342568780       373.659882073     -1103.193933291     -1102.591900814         7.928497329
        67           33.500000         0.350639975       382.463608338     -1103.194539378     -1102.591884770         7.950265158
        68           34.000000         0.345997697       377.400003729     -1103.195556011     -1102.591906792         7.130927205
        69           34.500000         0.342466881       373.548734454     -1103.196014672     -1102.591945672         7.107043792
        70           35.000000         0.355443402       387.702988203     -1103.193230674     -1102.591892012         9.876620360
        71           35.500000         0.344245402       375.488672611     -1103.188917883     -1102.591802864         7.877092466
        72           36.000000         0.330519301       360.516808176     -1103.187060657     -1102.591758059         7.899705343
        73           36.500000         0.326200340       355.805863246     -1103.184538096     -1102.591703782         7.887032013
        74           37.000000         0.302989252       330.488167137     -1103.184039470     -1102.591728009         7.968406886
        75           37.500000         0.317067110       345.843713683     -1103.186431911     -1102.591864050         7.923821557
        76           38.000000         0.313640510       342.106119846     -1103.188144932     -1102.591895517         7.873685386
        77           38.500000         0.302496149       329.950311108     -1103.189389545     -1102.591865466         7.926266044
        78           39.000000         0.305378939       333.094739067     -1103.189737441     -1102.591807764         7.945442200
        79           39.500000         0.301006790       328.325779520     -1103.189927999     -1102.591776434         7.147118129
        80           40.000000         0.288383234       314.556525289     -1103.189814610     -1102.591763713         9.510686483
        81           40.500000         0.308040715       335.998094745     -1103.191397518     -1102.591827828         7.134903844
        82           41.000000         0.305952161       333.719985934     -1103.192721377     -1102.591922968         7.903509080
        83           41.500000         0.313981545       342.478106810     -1103.193380332     -1102.592022563         7.154070109
        84           42.000000         0.313928093       342.419803652     -1103.192899886     -1102.592076168         7.874284238
        85           42.500000         0.303985768       331.575125392     -1103.188099785     -1102.592020541         7.150232382
        86           43.000000         0.303799682       331.372151049     -1103.186098855     -1102.592018442         7.915864192
        87           43.500000         0.289933952       316.247984387     -1103.185974928     -1102.592102922         7.163239103
        88           44.000000         0.294346851       321.061393239     -1103.184173809     -1102.592135629         7.160658032
        89           44.500000         0.293088093       319.688391115     -1103.180392870     -1102.592132617         7.911038864
        90           45.000000         0.289654495       315.943165067     -1103.175336292     -1102.592089330        10.264776025
        91           45.500000         0.291075501       317.493139698     -1103.171732198     -1102.592029400         7.926907416
        92           46.000000         0.281782439       307.356650782     -1103.165720631     -1102.591881832         7.110337310
        93           46.500000         0.263992232       287.951827286     -1103.160092209     -1102.591729033         7.912022900
        94           47.000000         0.253409917       276.409075021     -1103.157919257     -1102.591692067         7.875445198
        95           47.500000         0.267906108       292.220922260     -1103.161712516     -1102.591789396         7.921541207
        96           48.000000         0.268212933       292.555593936     -1103.166064041     -1102.591850230         7.956174009
        97           48.500000         0.273214887       298.011518611     -1103.169088671     -1102.591826881         7.894160058
        98           49.000000         0.269273118       293.712000247     -1103.171747379     -1102.591822002         7.914248385
        99           49.500000         0.276712476       301.826544622     -1103.172203142     -1102.591771481         7.916474435
       100           50.000000         0.240523363       262.352954691     -1103.173207858     -1102.591753332        10.179392945
       101           50.500000         0.259897430       283.485386469     -1103.175925482     -1102.591705456         7.892625473
       102           51.000000         0.277548256       302.738178906     -1103.179933622     -1102.591691047         7.112589620
       103           51.500000         0.276596409       301.699943603     -1103.182773181     -1102.591667672         7.179105174
       104           52.000000         0.278437875       303.708539071     -1103.187224614     -1102.591751047         7.937889148
       105           52.500000         0.279027689       304.351883338     -1103.190975679     -1102.591824835         7.154256862
       106           53.000000         0.275839194       300.874004458     -1103.195104772     -1102.591870243         7.160630520
       107           53.500000         0.287395588       313.479242509     -1103.199357550     -1102.591918117         7.121557355
       108           54.000000         0.291831468       318.317717095     -1103.204210872     -1102.592018063         7.142652147
       109           54.500000         0.300839768       328.143598782     -1103.207757863     -1102.592103482         7.158477452
       110           55.000000         0.300302807       327.557903584     -1103.205888248     -1102.592056211         9.558696087
       111           55.500000         0.294866871       321.628609704     -1103.203380923     -1102.591973571         7.165226642
       112           56.000000         0.305333443       333.045113436     -1103.199997141     -1102.591886376         7.171604544
       113           56.500000         0.289132109       315.373367212     -1103.196908523     -1102.591849895         7.143358696
       114           57.000000         0.292627912       319.186445562     -1103.194384425     -1102.591826107         7.157310516
       115           57.500000         0.303188841       330.705870444     -1103.193349470     -1102.591811557         7.122805469
       116           58.000000         0.300900646       328.210002098     -1103.192741990     -1102.591801685         7.151600003
       117           58.500000         0.277846746       303.063759616     -1103.194370397     -1102.591860204         7.170555007
       118           59.000000         0.290341762       316.692806675     -1103.197821374     -1102.591944508         7.125354271
       119           59.500000         0.302489637       329.943207659     -1103.199382788     -1102.592017517         7.145608950
       120           60.000000         0.298765818       325.881419551     -1103.198728902     -1102.592006702         9.653104812
       121           60.500000         0.287423353       313.509527030     -1103.198267895     -1102.592016353         7.153719064
       122           61.000000         0.285832664       311.774469611     -1103.198303137     -1102.592027753         7.186086416
       123           61.500000         0.284596518       310.426132145     -1103.198139080     -1102.591999311         7.143107530
       124           62.000000         0.288191941       314.347871479     -1103.196241962     -1102.591927373         7.137660403
       125           62.500000         0.295148990       321.936333341     -1103.196230160     -1102.591889027         7.145089421
       126           63.000000         0.302443823       329.893236139     -1103.196742463     -1102.591826745         7.118918821
       127           63.500000         0.312972442       341.377418568     -1103.200225113     -1102.591838414         7.161204308
       128           64.000000         0.310835767       339.046821759     -1103.200726015     -1102.591819729         7.175451729
       129           64.500000         0.314156333       342.668758101     -1103.203443047     -1102.591827429         7.170222323
       130           65.000000         0.329469455       359.371679138     -1103.206323978     -1102.591894979        10.087724678
       131           65.500000         0.309597068       337.695700305     -1103.208046029     -1102.591950105         7.140344135
       132           66.000000         0.304884884       332.555843963     -1103.207284342     -1102.591987898         7.173021208
       133           66.500000         0.311816541       340.116609022     -1103.200258252     -1102.591880110         7.166610263
       134           67.000000         0.300193484       327.438658393     -1103.193820654     -1102.591755283         7.135179173
       135           67.500000         0.295606300       322.435148142     -1103.187641930     -1102.591627001         7.149772201
       136           68.000000         0.288616627       314.811101144     -1103.182994035     -1102.591526232         7.161592092
       137           68.500000         0.287040281       313.091687723     -1103.181901770     -1102.591501284         7.165096272
       138           69.000000         0.279902756       305.306370744     -1103.181877760     -1102.591543052         7.148177803
       139           69.500000         0.273448474       298.266306024     -1103.185627777     -1102.591675199         7.162214343
       140           70.000000         0.294081353       320.771798844     -1103.192558273     -1102.591889730        11.613686912
       141           70.500000         0.287415275       313.500716270     -1103.196079065     -1102.592008504         7.156791538
       142           71.000000         0.300499226       327.772149265     -1103.195778014     -1102.592035550         7.142274674
       143           71.500000         0.275524662       300.530925718     -1103.192891715     -1102.591954423         7.148423154
       144           72.000000         0.284316451       310.120646662     -1103.191497712     -1102.591819084         7.169812106
       145           72.500000         0.285247414       311.136103015     -1103.189734338     -1102.591682631         7.135171987
       146           73.000000         0.273506352       298.329436490     -1103.192222921     -1102.591739253         7.169108238
       147           73.500000         0.278060638       303.297063910     -1103.196082771     -1102.591897643         7.179579049
       148           74.000000         0.280662886       306.135489271     -1103.199516606     -1102.591995405         7.142249726
       149           74.500000         0.287767598       313.885015311     -1103.200900459     -1102.591999655         7.178404428
       150           75.000000         0.278945000       304.261690061     -1103.202945021     -1102.592035564        10.387388427
       151           75.500000         0.286034942       311.995106039     -1103.204879415     -1102.592050389         7.124605272
       152           76.000000         0.280770564       306.252939478     -1103.204644228     -1102.591972769         7.944150414
       153           76.500000         0.270174068       294.694718986     -1103.202451208     -1102.591836522         7.111697435
       154           77.000000         0.267721664       292.019738154     -1103.200985669     -1102.591741408         7.152465526
       155           77.500000         0.258540291       282.005075223     -1103.204308281     -1102.591766452         7.130034573
       156           78.000000         0.266983234       291.214289640     -1103.208187036     -1102.591838043         7.144434113
       157           78.500000         0.277116134       302.266837615     -1103.215337612     -1102.591975667         7.911677927
       158           79.000000         0.300793253       328.092862178     -1103.221037272     -1102.592073284         7.909624599
       159           79.500000         0.300532331       327.808259343     -1103.221188975     -1102.592022760         7.125062875
       160           80.000000         0.297161792       324.131814083     -1103.216505346     -1102.591920761        11.479596246
       161           80.500000         0.287801575       313.922076017     -1103.212035579     -1102.591814139         7.930227656
       162           81.000000         0.284152891       309.942242454     -1103.206969917     -1102.591691944         7.906450648
       163           81.500000         0.298353428       325.431601441     -1103.203471708     -1102.591623556         7.145079084
       164           82.000000         0.294378895       321.096345017     -1103.203465467     -1102.591642397         7.895050831
       165           82.500000         0.307329967       335.222839595     -1103.203488133     -1102.591671520         7.917123437
       166           83.000000         0.306326772       334.128595758     -1103.206663677     -1102.591736767         7.904744770
       167           83.500000         0.291630313       318.098305368     -1103.207144465     -1102.591689466         7.902323581
       168           84.000000         0.302425660       329.873424276     -1103.208631997     -1102.591683968         7.930031553
       169           84.500000         0.289832481       316.137304344     -1103.208938160     -1102.591670441         7.923528209
       170           85.000000         0.297505035       324.506209160     -1103.208701384     -1102.591646377        10.139041483
       171           85.500000         0.274516620       299.431395491     -1103.209007400     -1102.591601284         7.906488191
       172           86.000000         0.274989096       299.946752827     -1103.212448446     -1102.591627418         7.928818431
       173           86.500000         0.279678306       305.061549458     -1103.217327358     -1102.591704340         7.129462983
       174           87.000000         0.281632204       307.192781202     -1103.221407990     -1102.591777554         7.113476187
       175           87.500000         0.270249855       294.777384722     -1103.224442263     -1102.591849724         7.130014069
       176           88.000000         0.275539797       300.547434633     -1103.226580252     -1102.591890866         7.900945045
       177           88.500000         0.292546477       319.097619354     -1103.227771066     -1102.591877816         7.181458358
       178           89.000000         0.292511298       319.059247038     -1103.225707142     -1102.591751611         7.168432102
       179           89.500000         0.301666656       329.045534253     -1103.223987240     -1102.591627063         7.137962259
       180           90.000000         0.304039541       331.633778473     -1103.224319867     -1102.591569014        10.377135821
       181           90.500000         0.314994998       343.583539387     -1103.228376049     -1102.591691276         7.886544589
       182           91.000000         0.301842985       329.237866661     -1103.235083011     -1102.591919352         7.926172327
       183           91.500000         0.312947410       341.350114623     -1103.238323990     -1102.592038798         7.137828033
       184           92.000000         0.303597829       331.151977736     -1103.238228686     -1102.592049184         7.916714791
       185           92.500000         0.295913484       322.770211097     -1103.235297948     -1102.591993695         7.904148243
       186           93.000000         0.295974557       322.836827002     -1103.228832741     -1102.591804521         7.909319732
       187           93.500000         0.286169726       312.142122701     -1103.222016088     -1102.591588648         7.897362303
       188           94.000000         0.292966680       319.555959751     -1103.219403873     -1102.591509504         7.160146710
       189           94.500000         0.281717453       307.285766776     -1103.218955835     -1102.591547060         7.910989672
       190           95.000000         0.276914184       302.046559420     -1103.218261822     -1102.591597805        11.261985119
       191           95.500000         0.281764102       307.336649720     -1103.221000511     -1102.591726320         7.126825105
       192           96.000000         0.267932217       292.249400634     -1103.225633029     -1102.591844572         7.145651985
       193           96.500000         0.290092911       316.421370433     -1103.224840647     -1102.591796185         7.139020633
       194           97.000000         0.285512043       311.424749064     -1103.223713737     -1102.591749182         7.893754404
       195           97.500000         0.283320557       309.034366065     -1103.220784124     -1102.591677891         7.149472285
       196           98.000000         0.275694444       300.716117451     -1103.215371028     -1102.591584053         7.151566070
       197           98.500000         0.273933753       298.795627827     -1103.212020710     -1102.591545082         7.142523941
       198           99.000000         0.267754999       292.056098670     -1103.209919995     -1102.591470513         7.160723932
       199           99.500000         0.275266725       300.249578956     -1103.208602766     -1102.591368813         7.887881186
       200          100.000000         0.276661878       301.771354377     -1103.208595212     -1102.591277473        10.867670100
       201          100.500000         0.263585502       287.508183732     -1103.209518743     -1102.591242251         7.872286890
       202          101.000000         0.270453319       294.999314080     -1103.214472023     -1102.591363575         7.930747755
       203          101.500000         0.285057037       310.928447107     -1103.219726834     -1102.591495420         7.141392343
       204          102.000000         0.286553247       312.560451452     -1103.224301438     -1102.591598304         7.884934805
       205          102.500000         0.285967514       311.921558328     -1103.227942224     -1102.591648428         7.913969979
       206          103.000000         0.284376342       310.185972885     -1103.231398486     -1102.591722340         7.143265478
       207          103.500000         0.283502485       309.232805916     -1103.233521179     -1102.591787893         7.134769727
       208          104.000000         0.280357314       305.802184008     -1103.233246074     -1102.591808639         7.147040218
       209          104.500000         0.288771710       314.980259418     -1103.231581886     -1102.591802472         7.155994855
       210          105.000000         0.278990914       304.311770458     -1103.226817013     -1102.591728853         9.462537915
       211          105.500000         0.264205136       288.184054479     -1103.221671564     -1102.591617529         7.150718302
       212          106.000000         0.258766775       282.252114749     -1103.218715215     -1102.591523737         7.128438924
       213          106.500000         0.266449775       290.632414239     -1103.220395055     -1102.591546864         7.116220374
       214          107.000000         0.288121462       314.270995851     -1103.225067120     -1102.591659847         7.178013578
       215          107.500000         0.286481549       312.482245699     -1103.232257519     -1102.591841141         7.147652015
       216          108.000000         0.297505813       324.507058745     -1103.240182792     -1102.592030267         7.122497141
       217          108.500000         0.315383728       344.007549290     -1103.244156883     -1102.592069340         7.124116514
       218          109.000000         0.291838783       318.325696283     -1103.243473347     -1102.591990911         7.126008648
       219          109.500000         0.284589101       310.418041882     -1103.242630983     -1102.591946278         7.156665355
       220          110.000000         0.292190309       318.709125483     -1103.242225543     -1102.591931247         9.511563942
       221          110.500000         0.283352434       309.069136424     -1103.244134505     -1102.591941340         7.124757264
       222          111.000000         0.272300638       297.014293811     -1103.245864256     -1102.591909929         7.156053040
       223          111.500000         0.276504201       301.599367310     -1103.246928428     -1102.591870842         7.128358472
       224          112.000000         0.267408127       291.677745282     -1103.246969271     -1102.591865568         7.144339912
       225          112.500000         0.266558791       290.751324566     -1103.250093510     -1102.591954731         7.148852248
       226          113.000000         0.280745688       306.225805559     -1103.251665680     -1102.591973442         7.131851219
       227          113.500000         0.281805537       307.381845349     -1103.253277013     -1102.591929760         7.137007296