ITEM: TIMESTEP
100000
ITEM: NUMBER OF ATOMS
400
ITEM: BOX BOUNDS pp pp pp
0.0000000000000000e+00 2.2360679774997898e+01
0.0000000000000000e+00 2.2360679774997898e+01
-5.5901699437494745e-01 5.5901699437494745e-01
ITEM: ATOMS id type xs ys zs
63 1 0.158317 0.128001 0.5
187 1 0.192366 0.165713 0.5
253 1 0.197821 0.433164 0.5
289 1 0.0471378 0.130659 0.5
285 1 0.109307 0.15356 0.5
178 1 0.100701 0.388504 0.5
219 1 0.115113 0.200154 0.5
119 1 0.15218 0.26183 0.5
107 1 0.116856 0.109516 0.5
81 1 0.00331774 0.0418014 0.5
225 1 0.159163 0.193856 0.5
167 1 0.010058 0.371077 0.5
390 1 0.0403401 0.268137 0.5
188 1 0.112027 0.0322789 0.5
371 1 0.011444 0.229086 0.5
354 1 0.102165 0.278385 0.5
24 1 0.056607 0.20227 0.5
123 1 0.146568 0.489725 0.5
159 1 0.184842 0.0493686 0.5
54 1 0.0806407 0.241202 0.5
384 1 0.14556 0.0743116 0.5
280 1 0.0390313 0.457932 0.5
184 1 0.0526085 0.30982 0.5
338 1 0.0942663 0.328699 0.5
353 1 0.143432 0.309376 0.5
346 1 0.186623 0.361311 0.5
17 1 0.190321 0.0973499 0.5
25 1 0.0543628 0.0450908 0.5
306 1 0.194492 0.314047 0.5
106 1 0.153964 0.391887 0.5
114 1 0.131564 0.352966 0.5
32 1 0.0762775 0.0902287 0.5
386 1 0.0595019 0.356695 0.5
67 1 0.0354262 0.408135 0.5
207 1 0.109027 0.464637 0.5
130 1 0.0321697 0.0873689 0.5
153 1 0.153432 0.437661 0.5
26 1 0.191423 0.231121 0.5
197 1 0.157762 0.536824 0.5
310 1 0.11357 0.866486 0.5
224 1 0.0371374 0.899224 0.5
298 1 0.0502183 0.541089 0.5
334 1 0.12712 0.584369 0.5
86 1 0.145085 0.768724 0.5
97 1 0.118423 0.959983 0.5
302 1 0.0392925 0.585449 0.5
367 1 0.1702 0.589523 0.5
90 1 0.191474 0.677761 0.5
355 1 0.0822469 0.576531 0.5
299 1 0.0132492 0.986337 0.5
307 1 0.102916 0.63144 0.5
361 1 0.0946225 0.677241 0.5
245 1 0.0987344 0.915592 0.5
62 1 0.0712305 0.822211 0.5
29 1 0.0280253 0.731518 0.5
257 1 0.139157 0.678115 0.5
9 1 0.114193 0.532445 0.5
93 1 0.114556 0.810708 0.5
261 1 0.0584275 0.955369 0.5
16 1 0.0492732 0.693472 0.5
66 1 0.0312289 0.81372 0.5
96 1 0.10052 0.761243 0.5
2 1 0.191982 0.508024 0.5
255 1 0.0419623 0.648165 0.5
242 1 0.174607 0.72089 0.5
170 1 0.049629 0.773709 0.5
210 1 0.125454 0.721223 0.5
234 1 0.150675 0.995727 0.5
294 1 0.179427 0.956922 0.5
305 1 0.156205 0.87035 0.5
139 1 0.0835006 0.994823 0.5
132 1 0.0275251 0.502741 0.5
331 1 0.151353 0.633831 0.5
110 1 0.164376 0.915716 0.5
8 1 0.00424367 0.540884 0.5
136 1 0.171375 0.810271 0.5
150 1 0.0160698 0.851805 0.5
198 1 0.00179329 0.941398 0.5
52 1 0.0809087 0.501769 0.5
351 1 0.357681 0.442787 0.5
215 1 0.204933 0.272017 0.5
387 1 0.339425 0.403568 0.5
30 1 0.286611 0.400082 0.5
124 1 0.225774 0.202704 0.5
195 1 0.224178 0.471519 0.5
314 1 0.388415 0.1983 0.5
50 1 0.285084 0.0963239 0.5
133 1 0.308934 0.440703 0.5
300 1 0.241761 0.241026 0.5
23 1 0.317734 0.152838 0.5
115 1 0.277609 0.322609 0.5
129 1 0.246208 0.0556375 0.5
193 1 0.319852 0.243407 0.5
149 1 0.306775 0.00536396 0.5
244 1 0.36701 0.156056 0.5
72 1 0.242129 0.431169 0.5
172 1 0.342282 0.198994 0.5
377 1 0.332549 0.102099 0.5
156 1 0.357493 0.3438 0.5
274 1 0.314382 0.292756 0.5
388 1 0.385721 0.482217 0.5
375 1 0.38313 0.391596 0.5
125 1 0.362455 0.257653 0.5
393 1 0.269413 0.169675 0.5
279 1 0.218788 0.390916 0.5
165 1 0.314903 0.363102 0.5
5 1 0.231247 0.140384 0.5
143 1 0.29896 0.0478712 0.5
332 1 0.251582 0.362019 0.5
49 1 0.350004 0.0140231 0.5
127 1 0.379465 0.109059 0.5
87 1 0.264228 0.0143487 0.5
176 1 0.244842 0.290215 0.5
214 1 0.292173 0.209757 0.5
303 1 0.280647 0.263285 0.5
31 1 0.377671 0.304742 0.5
399 1 0.354605 0.0574028 0.5
12 1 0.217003 0.00301012 0.5
22 1 0.310382 0.484231 0.5
135 1 0.280999 0.808818 0.5
376 1 0.330878 0.959235 0.5
201 1 0.350126 0.870943 0.5
330 1 0.247408 0.512622 0.5
10 1 0.337716 0.697173 0.5
189 1 0.316884 0.637416 0.5
227 1 0.286186 0.53356 0.5
211 1 0.369697 0.635995 0.5
252 1 0.383138 0.983321 0.5
270 1 0.273113 0.63994 0.5
319 1 0.329259 0.539821 0.5
141 1 0.29398 0.709326 0.5
395 1 0.311863 0.839443 0.5
69 1 0.380264 0.678927 0.5
320 1 0.34063 0.601082 0.5
142 1 0.242955 0.694487 0.5
98 1 0.216354 0.818249 0.5
34 1 0.37531 0.762891 0.5
78 1 0.243806 0.777528 0.5
4 1 0.322654 0.794112 0.5
241 1 0.296669 0.582327 0.5
260 1 0.27414 0.972335 0.5
7 1 0.281553 0.75144 0.5
126 1 0.20415 0.634411 0.5
118 1 0.251976 0.846664 0.5
263 1 0.234385 0.894068 0.5
80 1 0.200611 0.867455 0.5
398 1 0.329276 0.914101 0.5
341 1 0.368712 0.939567 0.5
82 1 0.224254 0.940574 0.5
364 1 0.27406 0.927798 0.5
169 1 0.371144 0.5708 0.5
47 1 0.323104 0.742171 0.5
311 1 0.240506 0.605731 0.5
75 1 0.242346 0.560825 0.5
182 1 0.368583 0.520772 0.5
315 1 0.293644 0.88479 0.5
161 1 0.375243 0.823953 0.5
391 1 0.224913 0.737197 0.5
128 1 0.20034 0.777669 0.5
1 1 0.200503 0.558583 0.5
293 1 0.477142 0.425877 0.5
357 1 0.473376 0.0462631 0.5
108 1 0.441154 0.184061 0.5
144 1 0.433367 0.405979 0.5
216 1 0.474498 0.309797 0.5
179 1 0.413894 0.0464148 0.5
287 1 0.517116 0.381901 0.5
205 1 0.497038 0.266863 0.5
288 1 0.591916 0.00776457 0.5
264 1 0.550397 0.12177 0.5
385 1 0.430531 0.0909929 0.5
21 1 0.426358 0.30785 0.5
158 1 0.417378 0.231688 0.5
202 1 0.557653 0.473755 0.5
243 1 0.536439 0.0350718 0.5
103 1 0.590501 0.426681 0.5
333 1 0.525807 0.432153 0.5
396 1 0.401766 0.436216 0.5
352 1 0.415277 0.140164 0.5
13 1 0.591691 0.0897112 0.5
163 1 0.504028 0.0897935 0.5
313 1 0.484808 0.183841 0.5
370 1 0.469896 0.141341 0.5
191 1 0.572433 0.309517 0.5
199 1 0.425147 0.355764 0.5
99 1 0.514425 0.220333 0.5
229 1 0.436473 0.486685 0.5
74 1 0.511887 0.474433 0.5
277 1 0.557451 0.25399 0.5
301 1 0.529679 0.316037 0.5
92 1 0.478609 0.357797 0.5
157 1 0.522218 0.161513 0.5
340 1 0.469155 0.225024 0.5
213 1 0.564243 0.355268 0.5
43 1 0.558336 0.204541 0.5
275 1 0.447581 0.261591 0.5
6 1 0.432372 0.00284533 0.5
342 1 0.537479 0.613064 0.5
15 1 0.420309 0.568004 0.5
251 1 0.485611 0.679585 0.5
358 1 0.451296 0.860308 0.5
35 1 0.49893 0.94965 0.5
91 1 0.455446 0.721762 0.5
248 1 0.494917 0.621486 0.5
18 1 0.439723 0.904091 0.5
339 1 0.575118 0.573168 0.5
55 1 0.502307 0.575383 0.5
273 1 0.416218 0.524186 0.5
111 1 0.528928 0.658774 0.5
36 1 0.538361 0.874882 0.5
65 1 0.410801 0.947808 0.5
262 1 0.433711 0.677388 0.5
232 1 0.553088 0.522634 0.5
374 1 0.534571 0.718346 0.5
218 1 0.528919 0.763979 0.5
175 1 0.465266 0.549367 0.5
265 1 0.402827 0.86539 0.5
41 1 0.597945 0.854084 0.5
278 1 0.579931 0.913883 0.5
53 1 0.474226 0.760364 0.5
208 1 0.54196 0.944121 0.5
335 1 0.57098 0.645479 0.5
19 1 0.45838 0.594666 0.5
194 1 0.49986 0.844842 0.5
33 1 0.431294 0.778378 0.5
94 1 0.43386 0.629282 0.5
186 1 0.49476 0.895882 0.5
226 1 0.470269 0.811096 0.5
240 1 0.582866 0.756526 0.5
368 1 0.574961 0.701619 0.5
304 1 0.508498 0.523833 0.5
256 1 0.537197 0.806004 0.5
350 1 0.420326 0.820244 0.5
271 1 0.453937 0.945728 0.5
164 1 0.600272 0.515846 0.5
177 1 0.588854 0.802222 0.5
236 1 0.410007 0.732355 0.5
181 1 0.536983 0.991033 0.5
365 1 0.488389 0.998257 0.5
3 1 0.739395 0.105115 0.5
290 1 0.680104 0.111941 0.5
321 1 0.71281 0.0697757 0.5
85 1 0.678068 0.0464081 0.5
61 1 0.622847 0.0473036 0.5
337 1 0.700686 0.487307 0.5
247 1 0.637723 0.092463 0.5
77 1 0.763149 0.143327 0.5
76 1 0.698533 0.372035 0.5
394 1 0.691535 0.24532 0.5
309 1 0.671058 0.286213 0.5
316 1 0.721822 0.160045 0.5
89 1 0.63651 0.428468 0.5
44 1 0.712805 0.288621 0.5
27 1 0.756217 0.0352584 0.5
104 1 0.708033 0.201127 0.5
204 1 0.754853 0.189823 0.5
239 1 0.643001 0.25103 0.5
83 1 0.599964 0.242722 0.5
237 1 0.756575 0.296869 0.5
230 1 0.739005 0.386422 0.5
183 1 0.790783 0.399933 0.5
349 1 0.777503 0.0765758 0.5
347 1 0.660553 0.21106 0.5
363 1 0.667755 0.158043 0.5
318 1 0.66272 0.333073 0.5
166 1 0.610859 0.183304 0.5
223 1 0.762392 0.494333 0.5
206 1 0.71984 0.429959 0.5
46 1 0.734969 0.23197 0.5
131 1 0.610267 0.133527 0.5
155 1 0.729802 0.331513 0.5
312 1 0.649593 0.382414 0.5
222 1 0.761049 0.443346 0.5
297 1 0.609956 0.466247 0.5
380 1 0.676756 0.417356 0.5
117 1 0.614308 0.285751 0.5
109 1 0.619938 0.335615 0.5
145 1 0.714861 0.0201983 0.5
325 1 0.668116 0.460687 0.5
140 1 0.777017 0.254298 0.5
397 1 0.766977 0.35297 0.5
28 1 0.603632 0.378616 0.5
348 1 0.703831 0.569848 0.5
14 1 0.631386 0.543952 0.5
134 1 0.615054 0.710247 0.5
112 1 0.773814 0.554707 0.5
381 1 0.710381 0.624085 0.5
151 1 0.65348 0.502727 0.5
249 1 0.667539 0.635647 0.5
122 1 0.751037 0.640669 0.5
59 1 0.682486 0.985341 0.5
373 1 0.698458 0.670627 0.5
267 1 0.631101 0.661694 0.5
70 1 0.724583 0.705726 0.5
308 1 0.798323 0.61379 0.5
359 1 0.712617 0.758971 0.5
147 1 0.743979 0.594283 0.5
238 1 0.768934 0.742184 0.5
336 1 0.664315 0.87964 0.5
190 1 0.634631 0.988546 0.5
343 1 0.778836 0.952778 0.5
209 1 0.715275 0.808477 0.5
250 1 0.797941 0.517802 0.5
212 1 0.772247 0.697759 0.5
324 1 0.758063 0.852436 0.5
282 1 0.67298 0.833325 0.5
322 1 0.663735 0.72519 0.5
392 1 0.690135 0.915011 0.5
228 1 0.751919 0.78733 0.5
152 1 0.715923 0.876262 0.5
296 1 0.646928 0.932029 0.5
40 1 0.66122 0.791464 0.5
168 1 0.629602 0.823028 0.5
231 1 0.717146 0.52502 0.5
269 1 0.727228 0.965727 0.5
174 1 0.734395 0.918832 0.5
383 1 0.621297 0.894434 0.5
20 1 0.605995 0.952398 0.5
162 1 0.614621 0.613209 0.5
329 1 0.87329 0.234459 0.5
71 1 0.906574 0.296532 0.5
323 1 0.96837 0.202153 0.5
291 1 0.948012 0.0482092 0.5
217 1 0.977856 0.414364 0.5
154 1 0.989992 0.267489 0.5
180 1 0.97918 0.0816359 0.5
95 1 0.983238 0.322124 0.5
105 1 0.8404 0.200735 0.5
345 1 0.856016 0.0523493 0.5
378 1 0.828942 0.483497 0.5
11 1 0.912915 0.0883666 0.5
326 1 0.892071 0.0295265 0.5
258 1 0.866795 0.420844 0.5
60 1 0.809813 0.131479 0.5
100 1 0.832046 0.319737 0.5
51 1 0.94894 0.114894 0.5
121 1 0.893524 0.149831 0.5
73 1 0.954853 0.497105 0.5
328 1 0.821085 0.268908 0.5
84 1 0.845064 0.15823 0.5
37 1 0.951472 0.380343 0.5
283 1 0.810187 0.43946 0.5
268 1 0.925488 0.209837 0.5
389 1 0.823096 0.0921831 0.5
400 1 0.81712 0.361837 0.5
286 1 0.869055 0.349785 0.5
259 1 0.91396 0.41906 0.5
200 1 0.884252 0.45976 0.5
276 1 0.919506 0.256464 0.5
369 1 0.906501 0.375536 0.5
266 1 0.99486 0.466596 0.5
137 1 0.943352 0.453769 0.5
171 1 0.862233 0.111311 0.5
292 1 0.935861 0.335752 0.5
58 1 0.944009 0.165276 0.5
281 1 1.00028 0.124162 0.5
295 1 0.996067 0.168972 0.5
185 1 0.806147 0.0396971 0.5
138 1 0.882035 0.957232 0.5
120 1 0.880452 0.844116 0.5
254 1 0.887145 0.549643 0.5
48 1 0.920717 0.826804 0.5
196 1 0.965135 0.862778 0.5
317 1 0.911208 0.64476 0.5
382 1 0.94793 0.724049 0.5
56 1 0.988539 0.898256 0.5
116 1 0.951732 0.619588 0.5
203 1 0.947279 0.54753 0.5
344 1 0.801265 0.667209 0.5
45 1 0.80872 0.867822 0.5
284 1 0.904217 0.689449 0.5
68 1 0.945569 0.681048 0.5
101 1 0.851299 0.990294 0.5
366 1 0.848778 0.679187 0.5
356 1 0.934338 0.769681 0.5
233 1 0.845934 0.629635 0.5
192 1 0.824745 0.721338 0.5
362 1 0.868898 0.72592 0.5
148 1 0.84592 0.777988 0.5
220 1 0.842568 0.933476 0.5
221 1 0.802746 0.780886 0.5
146 1 0.892 0.795189 0.5
360 1 0.869809 0.503605 0.5
173 1 0.840127 0.583423 0.5
379 1 0.888889 0.901356 0.5
39 1 0.989213 0.700417 0.5
102 1 0.911495 0.988672 0.5
160 1 0.923035 0.583085 0.5
372 1 0.988423 0.596188 0.5
272 1 0.914026 0.515366 0.5
64 1 0.879147 0.601682 0.5
88 1 0.922281 0.944384 0.5
113 1 0.923129 0.875005 0.5
42 1 0.981335 0.821924 0.5
327 1 0.987734 0.777611 0.5
246 1 0.968054 0.975396 0.5
235 1 0.993394 0.647293 0.5
79 1 0.808119 0.989385 0.5
38 1 0.802007 0.824583 0.5
57 1 0.803223 0.916684 0.5
