LAMMPS (15 Sep 2022)
OMP_NUM_THREADS environment is not set. Defaulting to 1 thread. (src/comm.cpp:98)
  using 1 OpenMP thread(s) per MPI task
# 2d WCA system, random initial configuration

#variable density equal 0.5
variable initial_temperature equal 3.0
variable final_temperature equal 0.1
variable dt equal 0.01
variable tau equal 100*${dt}
variable tau equal 100*0.01
variable thermo_time equal 50000*${dt}
variable thermo_time equal 50000*0.01
variable equil_steps equal 50000
variable run_steps equal 100000

units           lj
atom_style      atomic
dimension       2

lattice         sq ${density}
lattice         sq 0.8
Lattice spacing in x,y,z = 1.118034 1.118034 1.118034
region          box block 0 20 0 20 -0.5 0.5
# number of atom types
create_box      1 box
Created orthogonal box = (0 0 -0.55901699) to (22.36068 22.36068 0.55901699)
  5 by 2 by 1 MPI processor grid
create_atoms    1 box
Created 400 atoms
  using lattice units in orthogonal box = (0 0 -0.55901699) to (22.36068 22.36068 0.55901699)
  create_atoms CPU = 0.000 seconds
mass 1 1.0

velocity all create ${initial_temperature} 12345
velocity all create 3 12345

pair_style      lj/cut 1.0
#type_1 type_2 epsilon sigma cutoff
pair_coeff      1 1 10.0 0.89089871814 1.0
pair_modify shift yes

timestep ${dt}
timestep 0.01
thermo ${thermo_time}
thermo 500

fix 1 all nvt temp ${initial_temperature} ${initial_temperature} ${tau}
fix 1 all nvt temp 3 ${initial_temperature} ${tau}
fix 1 all nvt temp 3 3 ${tau}
fix 1 all nvt temp 3 3 1
run ${equil_steps}
run 50000
Generated 0 of 0 mixed pair_coeff terms from geometric mixing rule
Neighbor list info ...
  update: every = 1 steps, delay = 0 steps, check = yes
  max neighbors/atom: 2000, page size: 100000
  master list distance cutoff = 1.3
  ghost atom cutoff = 1.3
  binsize = 0.65, bins = 35 35 2
  1 neighbor lists, perpetual/occasional/extra = 1 0 0
  (1) pair lj/cut, perpetual
      attributes: half, newton on
      pair build: half/bin/atomonly/newton
      stencil: half/bin/2d
      bin: standard
Per MPI rank memory allocation (min/avg/max) = 3.048 | 3.048 | 3.048 Mbytes
   Step          Temp          E_pair         E_mol          TotEng         Press     
         0   3              0              0              2.9925         2.394        
       500   2.8035341      0.76318459     0              3.5597098      13.184954    
      1000   2.9499041      0.67032738     0              3.6128567      12.383523    
      1500   2.9207962      0.63627389     0              3.5497681      12.473851    
      2000   2.8682747      0.56025466     0              3.4213586      10.751003    
      2500   2.893598       0.67085921     0              3.5572233      12.262846    
      3000   2.7645235      0.86376337     0              3.6213756      13.674114    
      3500   2.8943766      0.60292153     0              3.4900621      11.780096    
      4000   2.9326779      0.52367963     0              3.4490259      10.81028     
      4500   2.6496729      0.64172953     0              3.2847782      11.995129    
      5000   2.8807604      0.8018229      0              3.6753814      13.644108    
      5500   3.050723       0.76672789     0              3.8098241      13.359082    
      6000   3.1431912      0.76635484     0              3.9016881      13.54909     
      6500   3.2675079      0.61804758     0              3.8773868      11.922755    
      7000   2.8989994      0.77522544     0              3.6669774      13.556231    
      7500   2.8373917      0.80670627     0              3.6370045      14.140835    
      8000   3.0956417      0.54474447     0              3.6326471      11.287593    
      8500   2.9074479      0.61434379     0              3.5145231      11.77998     
      9000   2.8487996      0.73192458     0              3.5736022      13.134082    
      9500   2.8244735      0.62029235     0              3.4377046      12.107345    
     10000   2.9478469      0.67297756     0              3.6134549      12.385669    
     10500   2.942856       0.57881968     0              3.5143185      11.570583    
     11000   2.9133119      0.81955807     0              3.7255867      13.771194    
     11500   3.0817922      0.88924668     0              3.9633344      14.780156    
     12000   3.0465044      0.71555214     0              3.7544402      12.730851    
     12500   3.0283333      0.71839862     0              3.7391611      13.283142    
     13000   3.0043773      0.64729657     0              3.6441629      12.140829    
     13500   3.2215111      0.59369426     0              3.8071516      11.677152    
     14000   2.9252324      0.7657207      0              3.68364        13.261942    
     14500   3.0849918      0.8303811      0              3.9076604      14.433685    
     15000   3.0248247      0.71744343     0              3.7347061      13.087769    
     15500   2.9291973      0.74842787     0              3.6703022      13.436861    
     16000   3.3527631      0.79038537     0              4.1347665      13.976743    
     16500   3.1239495      0.82790744     0              3.944047       13.859315    
     17000   3.1485003      0.5772714      0              3.7179004      11.365697    
     17500   3.0423544      0.65191468     0              3.6866632      12.526129    
     18000   2.7947793      0.75154879     0              3.5393411      13.027305    
     18500   2.8110255      0.64454524     0              3.4485432      11.642158    
     19000   2.77144        0.64507392     0              3.4095853      12.154105    
     19500   3.058796       0.57447273     0              3.6256217      11.163966    
     20000   3.1391135      0.49250855     0              3.6237742      10.674266    
     20500   2.8805011      0.60025025     0              3.4735501      11.876817    
     21000   2.8542762      0.78547966     0              3.6326202      13.764368    
     21500   2.8699233      0.70570384     0              3.5684524      12.896687    
     22000   2.9711271      0.65052267     0              3.614222       12.635022    
     22500   2.9177838      0.53885138     0              3.4493407      10.897134    
     23000   2.7485079      0.62864847     0              3.370285       11.994523    
     23500   2.9623293      0.65382829     0              3.6087517      12.129922    
     24000   2.8464909      0.80841534     0              3.64779        13.887832    
     24500   2.9966087      0.65307794     0              3.6421951      12.132041    
     25000   2.9535683      0.58395187     0              3.5301363      11.563835    
     25500   2.8477949      0.70603123     0              3.5467066      12.542167    
     26000   2.9311494      0.55018696     0              3.4740085      11.132672    
     26500   2.6647589      0.7418109      0              3.3999079      12.900793    
     27000   3.0390836      0.46765797     0              3.4991438      10.505026    
     27500   2.9423539      0.62912887     0              3.5641269      11.972179    
     28000   2.8912971      0.64928579     0              3.5333547      12.47888     
     28500   2.8494169      0.62482495     0              3.4671183      12.063741    
     29000   3.1260255      0.52438866     0              3.6425991      11.084311    
     29500   2.9459244      0.63110405     0              3.5696636      11.976784    
     30000   3.0066139      0.58182622     0              3.5809236      11.379688    
     30500   3.0229144      0.67113832     0              3.6864954      12.503262    
     31000   3.2943845      0.72522795     0              4.0113765      13.179883    
     31500   3.3237429      0.6731798      0              3.9886134      12.711242    
     32000   3.1460786      0.69241607     0              3.8306295      12.836236    
     32500   3.0987367      0.63207098     0              3.7230608      12.126429    
     33000   3.0155106      0.75289843     0              3.7608703      13.198605    
     33500   3.2586437      0.57239848     0              3.8228956      11.436401    
     34000   3.1653337      0.73551732     0              3.8929377      13.697836    
     34500   3.4193292      0.72342135     0              4.1342023      12.965061    
     35000   3.0109949      0.73423088     0              3.7376983      13.25421     
     35500   3.0623378      0.60600098     0              3.660683       11.724946    
     36000   2.9577499      0.68897        0              3.6393256      12.401944    
     36500   3.2290074      0.51157653     0              3.7325114      10.808273    
     37000   2.9525817      0.75254796     0              3.6977482      13.222209    
     37500   3.0837323      0.60892407     0              3.6849471      11.681872    
     38000   3.1656193      0.68937753     0              3.8470828      12.567975    
     38500   3.0500615      0.69995777     0              3.7423942      12.991114    
     39000   3.1007917      0.71926624     0              3.812306       13.301313    
     39500   2.9979376      0.67418419     0              3.6646269      12.148029    
     40000   2.850499       0.54868236     0              3.3920551      10.720527    
     40500   2.8856348      0.68444706     0              3.5628678      12.676434    
     41000   2.8905253      0.73373592     0              3.6170349      13.037742    
     41500   2.8327678      0.73949586     0              3.5651818      13.181261    
     42000   2.9710221      0.60976797     0              3.5733625      11.482725    
     42500   3.0275106      0.55303533     0              3.5729772      10.893926    
     43000   3.0179686      0.50753358     0              3.5179573      10.828762    
     43500   2.9960189      0.60869498     0              3.5972238      11.549364    
     44000   3.0327969      0.69078701     0              3.7160019      12.60227     
     44500   2.9253127      0.53854139     0              3.4565408      11.082492    
     45000   2.9417719      0.61834785     0              3.5527653      12.16544     
     45500   3.1172368      0.55997987     0              3.6694236      11.242936    
     46000   2.9808229      0.76176141     0              3.7351322      13.264772    
     46500   3.1385874      0.65975025     0              3.7904912      12.347444    
     47000   3.1723082      0.69206522     0              3.8564426      13.193118    
     47500   2.8870716      0.81615423     0              3.6960082      14.126299    
     48000   3.0234425      0.65685771     0              3.6727416      11.862739    
     48500   2.8864997      0.61832636     0              3.4976098      11.926151    
     49000   2.9414437      0.70838597     0              3.6424761      12.777971    
     49500   2.8571776      0.60141081     0              3.4514455      11.499191    
     50000   3.0616077      0.58533804     0              3.6392918      11.713639    
Loop time of 0.668075 on 10 procs for 50000 steps with 400 atoms

Performance: 64663386.510 tau/day, 74841.883 timesteps/s, 29.937 Matom-step/s
99.1% CPU use with 10 MPI tasks x 1 OpenMP threads

MPI task timing breakdown:
Section |  min time  |  avg time  |  max time  |%varavg| %total
---------------------------------------------------------------
Pair    | 0.045373   | 0.046904   | 0.048304   |   0.4 |  7.02
Neigh   | 0.087256   | 0.088746   | 0.091207   |   0.4 | 13.28
Comm    | 0.30539    | 0.31078    | 0.31423    |   0.6 | 46.52
Output  | 0.0010975  | 0.0014756  | 0.0048084  |   2.9 |  0.22
Modify  | 0.11417    | 0.11761    | 0.12191    |   0.8 | 17.60
Other   |            | 0.1026     |            |       | 15.35

Nlocal:             40 ave          46 max          35 min
Histogram: 1 0 2 0 5 0 0 1 0 1
Nghost:           38.1 ave          41 max          33 min
Histogram: 1 0 0 1 0 1 2 2 2 1
Neighs:           79.1 ave         103 max          59 min
Histogram: 1 0 2 2 1 1 1 1 0 1

Total # of neighbors = 791
Ave neighs/atom = 1.9775
Neighbor list builds = 16900
Dangerous builds = 0

unfix 1
dump           1 all atom ${run_steps} 2dWCA_T${final_temperature}_d${density}_N${run_steps}.lammpstrj
dump           1 all atom 100000 2dWCA_T${final_temperature}_d${density}_N${run_steps}.lammpstrj
dump           1 all atom 100000 2dWCA_T0.1_d${density}_N${run_steps}.lammpstrj
dump           1 all atom 100000 2dWCA_T0.1_d0.8_N${run_steps}.lammpstrj
dump           1 all atom 100000 2dWCA_T0.1_d0.8_N100000.lammpstrj
dump           2 all dcd ${thermo_time} 2dWCA_T${final_temperature}_d${density}_N${run_steps}.dcd
dump           2 all dcd 500 2dWCA_T${final_temperature}_d${density}_N${run_steps}.dcd
dump           2 all dcd 500 2dWCA_T0.1_d${density}_N${run_steps}.dcd
dump           2 all dcd 500 2dWCA_T0.1_d0.8_N${run_steps}.dcd
dump           2 all dcd 500 2dWCA_T0.1_d0.8_N100000.dcd
fix 1 all nvt temp ${initial_temperature} ${final_temperature} ${tau}
fix 1 all nvt temp 3 ${final_temperature} ${tau}
fix 1 all nvt temp 3 0.1 ${tau}
fix 1 all nvt temp 3 0.1 1

run ${run_steps}
run 100000
Generated 0 of 0 mixed pair_coeff terms from geometric mixing rule
Per MPI rank memory allocation (min/avg/max) = 3.071 | 3.071 | 3.071 Mbytes
   Step          Temp          E_pair         E_mol          TotEng         Press     
     50000   3.0616077      0.58533804     0              3.6392918      11.713639    
     50500   3.2065437      0.69444982     0              3.8929771      12.613923    
     51000   2.9590636      0.74645071     0              3.6981167      13.071785    
     51500   3.0761786      0.79054517     0              3.8590334      13.81621     
     52000   3.0886889      0.63099961     0              3.7119668      11.79497     
     52500   2.9431386      0.66626898     0              3.6020498      12.043398    
     53000   2.8944285      0.624335       0              3.5115274      12.192942    
     53500   2.9767901      0.49635553     0              3.4657037      10.352342    
     54000   2.8226496      0.70041423     0              3.5160072      12.532031    
     54500   2.9510301      0.63461639     0              3.5782689      12.092638    
     55000   2.7554263      0.70513013     0              3.4536679      12.482827    
     55500   2.8373314      0.68197684     0              3.5122149      12.702749    
     56000   2.8952661      0.58929032     0              3.4773182      11.360051    
     56500   2.7564361      0.7139264      0              3.4634714      13.077217    
     57000   2.7369987      0.77357281     0              3.503729       13.157088    
     57500   2.7780012      0.70206631     0              3.4731225      12.204414    
     58000   2.8596804      0.65806204     0              3.5105933      11.942715    
     58500   2.8688874      0.6175118      0              3.4792269      11.989557    
     59000   2.8722969      0.74326878     0              3.6083849      13.171457    
     59500   2.7250853      0.70853022     0              3.4268028      12.752304    
     60000   2.6809422      0.54318403     0              3.2174238      10.993683    
     60500   2.6672488      0.55421996     0              3.2148006      10.619899    
     61000   2.7378604      0.53063736     0              3.2616531      10.662615    
     61500   2.741088       0.49769401     0              3.2319292      10.23181     
     62000   2.6516558      0.60056547     0              3.2455921      11.546128    
     62500   2.7625639      0.50242994     0              3.2580874      10.122549    
     63000   2.8381146      0.60913886     0              3.4401582      12.268242    
     63500   3.0172761      0.57630191     0              3.5860349      11.526546    
     64000   2.6050866      0.55459039     0              3.1531643      11.207337    
     64500   2.6124542      0.59283907     0              3.1987621      11.54742     
     65000   2.5931741      0.56044095     0              3.1471321      10.861549    
     65500   2.598774       0.54366556     0              3.1359426      10.594716    
     66000   2.6315278      0.54194342     0              3.1668924      10.251246    
     66500   2.5800972      0.47109868     0              3.0447456      9.8196384    
     67000   2.3490044      0.53393351     0              2.8770654      10.510612    
     67500   2.4683163      0.48605228     0              2.9481977      10.08039     
     68000   2.3221891      0.62817739     0              2.944561       11.527472    
     68500   2.3050595      0.52619062     0              2.8254875      10.39484     
     69000   2.3204617      0.45402002     0              2.7686806      9.2246881    
     69500   2.284653       0.59080965     0              2.869751       11.128437    
     70000   2.3539228      0.37140717     0              2.7194451      8.4214855    
     70500   2.3499418      0.50977938     0              2.8538463      9.9442782    
     71000   2.3683358      0.50411512     0              2.86653        9.7843245    
     71500   2.2568336      0.46654368     0              2.7177352      9.8650394    
     72000   2.4128796      0.43699566     0              2.843843       9.3549       
     72500   2.3515861      0.5743377      0              2.9200448      10.906948    
     73000   2.3970814      0.45027814     0              2.8413668      9.3844191    
     73500   2.5676376      0.38756744     0              2.9487859      8.9227899    
     74000   2.6783491      0.60588888     0              3.2775421      11.670084    
     74500   2.3856571      0.46256636     0              2.8422593      9.6841124    
     75000   2.4091555      0.40004101     0              2.8031736      9.2415438    
     75500   2.3596455      0.43011237     0              2.7838588      9.114334     
     76000   2.4174242      0.49003092     0              2.9014116      9.8290975    
     76500   2.3588571      0.43088783     0              2.7838478      9.3804458    
     77000   2.2229661      0.55943908     0              2.7768477      10.539378    
     77500   2.2751173      0.49934264     0              2.7687721      10.135139    
     78000   2.2927952      0.50033244     0              2.7873957      9.9023597    
     78500   2.2688043      0.47788319     0              2.7410155      9.336512     
     79000   2.2410378      0.4564013      0              2.6918365      9.4308121    
     79500   2.1692062      0.4455437      0              2.6093269      8.9222835    
     80000   2.2235854      0.5110715      0              2.729098       10.017547    
     80500   2.2120065      0.47156611     0              2.6780426      9.821244     
     81000   2.0856103      0.43682012     0              2.5172164      9.020984     
     81500   2.1187523      0.42510185     0              2.5385572      8.7289872    
     82000   2.0579513      0.47796483     0              2.5307713      9.4539584    
     82500   2.0274048      0.53342256     0              2.5557589      9.8854323    
     83000   2.1327152      0.50233021     0              2.6297136      10.239253    
     83500   2.0010019      0.48857455     0              2.484574       9.7372812    
     84000   2.0965013      0.47845563     0              2.5697157      9.2727705    
     84500   2.0054118      0.39881487     0              2.3992131      8.5737482    
     85000   2.0141542      0.4234668      0              2.4325856      9.0117877    
     85500   1.9658095      0.41327706     0              2.374172       8.8709979    
     86000   2.0024804      0.42234685     0              2.4198211      9.0392401    
     86500   2.0190645      0.38026539     0              2.3942822      8.3163417    
     87000   1.9772753      0.41697618     0              2.3893083      8.638989     
     87500   2.0316387      0.41110314     0              2.4376628      8.7257653    
     88000   1.9804641      0.43656285     0              2.4120758      9.3540089    
     88500   1.9238632      0.35778171     0              2.2768352      7.8874226    
     89000   2.0485707      0.34690285     0              2.3903521      7.5701824    
     89500   1.9653926      0.39226272     0              2.3527418      8.4188195    
     90000   1.8885012      0.35970627     0              2.2434863      7.652936     
     90500   1.8838858      0.33435225     0              2.2135283      7.6055594    
     91000   1.8289266      0.40538811     0              2.2297424      8.5804946    
     91500   1.8234731      0.39390863     0              2.212823       8.4956276    
     92000   1.974602       0.3109234      0              2.2805889      7.4321186    
     92500   1.7512404      0.29772453     0              2.0445868      7.1420153    
     93000   1.7431406      0.32064651     0              2.0594293      7.466656     
     93500   1.6278044      0.36011117     0              1.983846       7.9661343    
     94000   1.6588195      0.33512556     0              1.989798       7.5143274    
     94500   1.6801201      0.35616349     0              2.0320833      7.8904781    
     95000   1.7278942      0.27799499     0              2.0015694      6.6529361    
     95500   1.6835135      0.32321916     0              2.0025239      7.3266308    
     96000   1.6272971      0.33666785     0              1.9598967      7.559972     
     96500   1.6632295      0.30349494     0              1.9625663      7.0523176    
     97000   1.4954802      0.33763781     0              1.8293793      7.2294984    
     97500   1.5626169      0.2949152      0              1.8536256      6.8195891    
     98000   1.6499826      0.24822169     0              1.8940793      6.2295693    
     98500   1.5860735      0.30384535     0              1.8859536      6.8087653    
     99000   1.5469395      0.28762006     0              1.8306922      6.6880234    
     99500   1.4422039      0.21281919     0              1.6514175      5.428798     
    100000   1.4642445      0.25625588     0              1.7168398      6.3080905    
    100500   1.4841159      0.26780846     0              1.7482141      6.2075527    
    101000   1.5215508      0.24376506     0              1.761512       6.1204665    
    101500   1.4487965      0.24444452     0              1.6896191      6.0142113    
    102000   1.4794772      0.28428189     0              1.7600604      6.8168045    
    102500   1.5058274      0.28387649     0              1.7859393      6.6331825    
    103000   1.4932688      0.30913147     0              1.7986671      6.8055609    
    103500   1.4562491      0.34217437     0              1.7947828      7.4471794    
    104000   1.4976365      0.28988407     0              1.7837765      7.0151332    
    104500   1.4775562      0.30469714     0              1.7785595      6.6249759    
    105000   1.4646521      0.2784022      0              1.7393926      6.56674      
    105500   1.435488       0.23765022     0              1.6695495      5.932382     
    106000   1.4988376      0.21796991     0              1.7130604      5.8412979    
    106500   1.5313896      0.26450038     0              1.7920615      6.4488519    
    107000   1.417359       0.2625036      0              1.6763192      6.5267081    
    107500   1.3971914      0.25621155     0              1.64991        6.197278     
    108000   1.3423207      0.21511513     0              1.5540801      5.6242562    
    108500   1.2239903      0.29088688     0              1.5118173      6.8507568    
    109000   1.2189054      0.21472504     0              1.4305832      5.0795127    
    109500   1.2500214      0.22610896     0              1.4730054      5.5276048    
    110000   1.2061458      0.28369446     0              1.4868249      6.5295815    
    110500   1.2327457      0.23752994     0              1.4671938      5.9591584    
    111000   1.2207145      0.20986117     0              1.4275239      5.2072918    
    111500   1.1941386      0.22143095     0              1.4125843      5.6044386    
    112000   1.1661877      0.21879613     0              1.3820683      5.4768109    
    112500   1.2114705      0.1718207      0              1.3802626      4.9594835    
    113000   1.1691031      0.16937295     0              1.3355533      4.7316701    
    113500   1.1431091      0.21309046     0              1.3533418      5.5528962    
    114000   1.1262427      0.21201444     0              1.3354416      5.2353577    
    114500   1.0729098      0.21634858     0              1.2865761      5.3254718    
    115000   1.1275256      0.18217799     0              1.3068847      4.8598054    
    115500   1.1214459      0.17829985     0              1.2969421      4.8885051    
    116000   1.0046162      0.18164327     0              1.183748       4.7259942    
    116500   1.057843       0.18659562     0              1.241794       4.8177694    
    117000   0.96603514     0.17926039     0              1.1428804      4.9911344    
    117500   1.0456281      0.15323822     0              1.1962522      4.5037898    
    118000   1.0150047      0.13898521     0              1.1514524      4.1608088    
    118500   0.9294176      0.18435406     0              1.1114481      4.9174765    
    119000   0.93259022     0.15696575     0              1.0872245      4.2437107    
    119500   1.0126005      0.14073619     0              1.1508052      4.2910275    
    120000   1.0493261      0.1341207      0              1.1808235      3.6667892    
    120500   0.9602401      0.17429944     0              1.1321389      4.7959568    
    121000   0.9634405      0.18547719     0              1.1465091      4.8354691    
    121500   0.98385763     0.17021831     0              1.1516163      4.7138542    
    122000   0.94824591     0.20957044     0              1.1554457      5.2312681    
    122500   0.89231736     0.1497246      0              1.0398112      4.3685835    
    123000   0.93239694     0.12475642     0              1.0548224      3.8312427    
    123500   0.92818949     0.099671597    0              1.0255406      3.3534282    
    124000   0.91299594     0.13355559     0              1.044269       4.0245911    
    124500   0.90195363     0.18422215     0              1.0839209      4.7198802    
    125000   0.86751979     0.13211343     0              0.99746443     3.8800281    
    125500   0.85918958     0.13037558     0              0.98741719     3.7560933    
    126000   0.78245045     0.10418168     0              0.884676       3.3491983    
    126500   0.72566561     0.17593322     0              0.89978467     4.5373076    
    127000   0.76717342     0.10550028     0              0.87075577     3.3881497    
    127500   0.77038535     0.10664506     0              0.87510445     3.4411336    
    128000   0.75390556     0.11914598     0              0.87116677     3.5706783    
    128500   0.70013888     0.11175487     0              0.81014341     3.4443574    
    129000   0.71547351     0.093986994    0              0.80767182     3.1302217    
    129500   0.6533758      0.093405342    0              0.7451477      3.0288659    
    130000   0.68199973     0.090029625    0              0.77032435     3.1136028    
    130500   0.67831454     0.10802133     0              0.78464009     3.2731273    
    131000   0.65817674     0.12221914     0              0.77875044     3.6405485    
    131500   0.66028398     0.099236162    0              0.75786943     3.1366833    
    132000   0.66425048     0.10923114     0              0.771821       3.1623628    
    132500   0.64605929     0.11381855     0              0.75826269     3.4719012    
    133000   0.61921691     0.095013582    0              0.71268245     2.9654374    
    133500   0.57405689     0.091322827    0              0.66394458     2.7900357    
    134000   0.54454162     0.098627466    0              0.64180773     3.1650251    
    134500   0.54965186     0.082638324    0              0.63091605     2.8018137    
    135000   0.498715       0.053759593    0              0.55122781     2.191681     
    135500   0.4756818      0.090471415    0              0.56496401     2.7581639    
    136000   0.49426121     0.060558577    0              0.55358413     2.2423975    
    136500   0.47496678     0.069375367    0              0.54315473     2.405589     
    137000   0.4563156      0.046818043    0              0.50199285     1.9393896    
    137500   0.46061518     0.056082307    0              0.51554595     2.0464003    
    138000   0.44943852     0.046158657    0              0.49447358     1.9760779    
    138500   0.42425237     0.059118435    0              0.48231018     2.1458538    
    139000   0.40319985     0.057726915    0              0.45991876     2.2511155    
    139500   0.4241371      0.042054616    0              0.46513137     1.813718     
    140000   0.3798684      0.044526842    0              0.42344557     1.7923765    
    140500   0.36309227     0.052553955    0              0.41473849     1.9000889    
    141000   0.35892306     0.05035449     0              0.40838024     1.9398372    
    141500   0.33659241     0.050202971    0              0.3859539      1.9390308    
    142000   0.32608047     0.047788706    0              0.37305398     1.7860471    
    142500   0.33345692     0.043097772    0              0.37572105     1.6830875    
    143000   0.30035523     0.043018994    0              0.34262334     1.7602007    
    143500   0.27411267     0.030051899    0              0.30347929     1.3445759    
    144000   0.27210416     0.027241133    0              0.29866503     1.254389     
    144500   0.25322598     0.02771444     0              0.28030735     1.3037707    
    145000   0.24892077     0.029390547    0              0.27768902     1.349005     
    145500   0.24653319     0.018679203    0              0.26459606     1.0727494    
    146000   0.22387089     0.031385675    0              0.25469689     1.3635155    
    146500   0.20552186     0.019785257    0              0.22479331     1.0990035    
    147000   0.1797735      0.01908877     0              0.19841283     0.97810685   
    147500   0.17217724     0.013494739    0              0.18524154     0.75024912   
    148000   0.15742321     0.014553964    0              0.17158361     0.86113385   
    148500   0.14109543     0.012001719    0              0.15274441     0.68197074   
    149000   0.119941       0.012765346    0              0.13240649     0.72591356   
    149500   0.11830074     0.0082425656   0              0.12624755     0.56703369   
    150000   0.10397047     0.0087627803   0              0.11247332     0.57096233   
Loop time of 1.2133 on 10 procs for 100000 steps with 400 atoms

Performance: 71210604.012 tau/day, 82419.681 timesteps/s, 32.968 Matom-step/s
99.1% CPU use with 10 MPI tasks x 1 OpenMP threads

MPI task timing breakdown:
Section |  min time  |  avg time  |  max time  |%varavg| %total
---------------------------------------------------------------
Pair    | 0.081245   | 0.083255   | 0.084798   |   0.4 |  6.86
Neigh   | 0.1251     | 0.12677    | 0.13022    |   0.4 | 10.45
Comm    | 0.56189    | 0.57039    | 0.57642    |   0.6 | 47.01
Output  | 0.014499   | 0.014576   | 0.01512    |   0.2 |  1.20
Modify  | 0.22004    | 0.22814    | 0.2386     |   1.2 | 18.80
Other   |            | 0.1902     |            |       | 15.67

Nlocal:             40 ave          44 max          36 min
Histogram: 1 0 3 1 0 0 1 3 0 1
Nghost:           37.8 ave          40 max          34 min
Histogram: 1 1 0 0 0 2 2 0 1 3
Neighs:           82.3 ave          99 max          66 min
Histogram: 2 0 1 0 2 1 1 2 0 1

Total # of neighbors = 823
Ave neighs/atom = 2.0575
Neighbor list builds = 24477
Dangerous builds = 0
Total wall time: 0:00:01
