ITEM: TIMESTEP
100000
ITEM: NUMBER OF ATOMS
400
ITEM: BOX BOUNDS pp pp pp
0.0000000000000000e+00 1.9069251784911849e+01
0.0000000000000000e+00 1.9069251784911849e+01
-4.7673129462279618e-01 4.7673129462279618e-01
ITEM: ATOMS id type xs ys zs
39 1 0.185087 0.460111 0.5
53 1 0.0873976 0.476742 0.5
109 1 0.160994 0.0272752 0.5
23 1 0.0538654 0.0455907 0.5
14 1 0.109286 0.0358305 0.5
11 1 0.0326157 0.0933485 0.5
17 1 0.0853658 0.093164 0.5
25 1 0.13626 0.0798795 0.5
113 1 0.188887 0.0739391 0.5
344 1 0.010741 0.141813 0.5
7 1 0.0663535 0.141752 0.5
349 1 0.117757 0.131765 0.5
24 1 0.166358 0.121357 0.5
28 1 0.153175 0.171471 0.5
16 1 0.046519 0.190609 0.5
18 1 0.101506 0.18046 0.5
21 1 0.0232189 0.242558 0.5
22 1 0.0774478 0.231771 0.5
27 1 0.132292 0.225631 0.5
35 1 0.180167 0.215607 0.5
19 1 0.00182882 0.0532389 0.5
358 1 0.060447 0.280545 0.5
26 1 0.111692 0.276613 0.5
34 1 0.165153 0.27458 0.5
32 1 0.139808 0.320792 0.5
57 1 0.026014 0.477705 0.5
364 1 0.0340116 0.327321 0.5
361 1 0.0903471 0.324708 0.5
42 1 0.0117436 0.379262 0.5
31 1 0.0639638 0.381591 0.5
37 1 0.115723 0.368586 0.5
33 1 0.172079 0.363358 0.5
47 1 0.0523794 0.431825 0.5
43 1 0.101725 0.422334 0.5
38 1 0.153542 0.416276 0.5
48 1 0.135328 0.463826 0.5
129 1 0.194779 0.317027 0.5
75 1 0.185455 0.687068 0.5
62 1 0.0568837 0.519615 0.5
44 1 0.169838 0.508139 0.5
177 1 0.125651 0.989196 0.5
68 1 0.0987722 0.563359 0.5
54 1 0.152182 0.554961 0.5
66 1 0.0480404 0.570351 0.5
63 1 0.127982 0.606359 0.5
59 1 0.179399 0.597064 0.5
379 1 0.014306 0.615875 0.5
67 1 0.0730966 0.616599 0.5
98 1 0.0114507 0.918457 0.5
71 1 0.0470905 0.663016 0.5
73 1 0.111971 0.656587 0.5
69 1 0.16028 0.645127 0.5
382 1 0.0217332 0.709009 0.5
72 1 0.0816771 0.707018 0.5
78 1 0.133544 0.700729 0.5
76 1 0.00994067 0.775106 0.5
82 1 0.113463 0.749686 0.5
83 1 0.165864 0.739176 0.5
58 1 0.117857 0.516698 0.5
77 1 0.0601545 0.75502 0.5
87 1 0.0453885 0.81317 0.5
93 1 0.0945609 0.795058 0.5
88 1 0.147251 0.790097 0.5
5 1 0.0812922 0.84828 0.5
95 1 0.13168 0.838883 0.5
94 1 0.181266 0.83006 0.5
99 1 0.0300276 0.864138 0.5
101 1 0.11541 0.894458 0.5
100 1 0.164327 0.87819 0.5
15 1 0.147032 0.938112 0.5
4 1 0.0646255 0.906074 0.5
174 1 0.1782 0.98065 0.5
12 1 0.045331 0.954364 0.5
10 1 0.0952081 0.947952 0.5
61 1 0.00311479 0.522908 0.5
173 1 0.193885 0.92003 0.5
20 1 0.0719442 0.998011 0.5
84 1 0.198618 0.781524 0.5
9 1 0.0207537 0.998429 0.5
137 1 0.273592 0.487042 0.5
102 1 0.25985 0.0106516 0.5
105 1 0.211262 0.0236117 0.5
106 1 0.23975 0.06917 0.5
114 1 0.29242 0.0573154 0.5
111 1 0.348392 0.0527081 0.5
148 1 0.378393 0.469943 0.5
118 1 0.269854 0.10931 0.5
115 1 0.320477 0.104258 0.5
190 1 0.37829 0.0939673 0.5
117 1 0.219856 0.118453 0.5
143 1 0.325324 0.482139 0.5
30 1 0.25542 0.158057 0.5
110 1 0.308783 0.153501 0.5
112 1 0.36105 0.151172 0.5
121 1 0.232067 0.210004 0.5
122 1 0.286418 0.203895 0.5
119 1 0.335743 0.196288 0.5
140 1 0.345314 0.432625 0.5
128 1 0.314248 0.24971 0.5
123 1 0.373031 0.243665 0.5
125 1 0.213957 0.262251 0.5
126 1 0.263637 0.257014 0.5
120 1 0.390688 0.195119 0.5
130 1 0.245893 0.307826 0.5
127 1 0.297042 0.296903 0.5
199 1 0.349718 0.28719 0.5
134 1 0.223584 0.358812 0.5
131 1 0.281278 0.348459 0.5
132 1 0.333392 0.339095 0.5
202 1 0.382781 0.334776 0.5
135 1 0.315925 0.385014 0.5
136 1 0.364602 0.383524 0.5
107 1 0.31119 0.00858324 0.5
138 1 0.257011 0.398453 0.5
104 1 0.366822 0.00365918 0.5
133 1 0.242657 0.446908 0.5
139 1 0.296601 0.440216 0.5
29 1 0.203655 0.164781 0.5
45 1 0.224268 0.495738 0.5
40 1 0.206289 0.414796 0.5
108 1 0.396911 0.0437765 0.5
142 1 0.305629 0.526482 0.5
141 1 0.359609 0.531611 0.5
168 1 0.385203 0.955333 0.5
50 1 0.256706 0.542821 0.5
55 1 0.230089 0.596015 0.5
60 1 0.284209 0.589286 0.5
149 1 0.333877 0.579207 0.5
145 1 0.392542 0.570971 0.5
70 1 0.208726 0.640981 0.5
64 1 0.26072 0.636426 0.5
65 1 0.315511 0.629791 0.5
154 1 0.364808 0.616542 0.5
74 1 0.293283 0.677348 0.5
153 1 0.349336 0.669022 0.5
157 1 0.242956 0.685006 0.5
155 1 0.385526 0.71328 0.5
80 1 0.21777 0.732734 0.5
162 1 0.278623 0.731645 0.5
158 1 0.331814 0.719059 0.5
175 1 0.229948 0.96311 0.5
79 1 0.261111 0.779875 0.5
85 1 0.314731 0.770231 0.5
161 1 0.364067 0.760264 0.5
89 1 0.289129 0.819648 0.5
165 1 0.348103 0.809936 0.5
178 1 0.333652 0.952425 0.5
90 1 0.235939 0.83001 0.5
163 1 0.376914 0.854585 0.5
169 1 0.213597 0.873898 0.5
167 1 0.271316 0.868293 0.5
166 1 0.323943 0.856915 0.5
170 1 0.252179 0.914426 0.5
176 1 0.304678 0.905739 0.5
171 1 0.360452 0.910188 0.5
103 1 0.279235 0.962818 0.5
49 1 0.20536 0.544813 0.5
184 1 0.445939 0.0424204 0.5
182 1 0.503056 0.0386887 0.5
183 1 0.555481 0.0298065 0.5
188 1 0.428346 0.0909231 0.5
185 1 0.484535 0.0869256 0.5
246 1 0.535428 0.0791995 0.5
242 1 0.58961 0.066093 0.5
191 1 0.411155 0.140255 0.5
189 1 0.462139 0.130787 0.5
187 1 0.520144 0.126725 0.5
251 1 0.569582 0.115853 0.5
116 1 0.444865 0.182103 0.5
194 1 0.494074 0.172029 0.5
186 1 0.551709 0.165556 0.5
195 1 0.527732 0.216194 0.5
256 1 0.589184 0.202215 0.5
193 1 0.42557 0.23251 0.5
197 1 0.479829 0.222326 0.5
196 1 0.459075 0.273407 0.5
201 1 0.509155 0.263875 0.5
198 1 0.567275 0.248776 0.5
200 1 0.492459 0.312874 0.5
281 1 0.544421 0.300219 0.5
215 1 0.512278 0.493916 0.5
203 1 0.440357 0.324081 0.5
204 1 0.522229 0.357995 0.5
276 1 0.571252 0.341322 0.5
205 1 0.42036 0.369271 0.5
206 1 0.472433 0.366413 0.5
208 1 0.450758 0.411469 0.5
209 1 0.503311 0.408032 0.5
207 1 0.556088 0.399455 0.5
212 1 0.479909 0.454663 0.5
213 1 0.530708 0.44692 0.5
210 1 0.58887 0.436368 0.5
211 1 0.430183 0.461871 0.5
296 1 0.565365 0.48485 0.5
124 1 0.404373 0.283785 0.5
271 1 0.59882 0.288271 0.5
144 1 0.400396 0.419937 0.5
232 1 0.410823 0.894319 0.5
146 1 0.411609 0.516357 0.5
237 1 0.577443 0.983267 0.5
147 1 0.443755 0.552584 0.5
217 1 0.496851 0.543232 0.5
216 1 0.545995 0.533576 0.5
218 1 0.476615 0.5912 0.5
219 1 0.528291 0.589044 0.5
306 1 0.579004 0.571541 0.5
150 1 0.430682 0.606298 0.5
222 1 0.56432 0.627241 0.5
240 1 0.594586 0.935201 0.5
152 1 0.463527 0.644145 0.5
221 1 0.512607 0.632758 0.5
239 1 0.52417 0.986925 0.5
223 1 0.437861 0.696488 0.5
151 1 0.498509 0.68469 0.5
220 1 0.547854 0.686741 0.5
228 1 0.576528 0.729745 0.5
160 1 0.419183 0.753885 0.5
226 1 0.468949 0.73904 0.5
224 1 0.52097 0.731054 0.5
227 1 0.548495 0.773323 0.5
229 1 0.451346 0.795368 0.5
230 1 0.50076 0.786555 0.5
231 1 0.53429 0.827176 0.5
164 1 0.432541 0.845395 0.5
236 1 0.483953 0.840036 0.5
327 1 0.583316 0.844848 0.5
181 1 0.469935 0.990553 0.5
235 1 0.461967 0.890583 0.5
233 1 0.511263 0.892177 0.5
234 1 0.559513 0.889806 0.5
172 1 0.437048 0.944126 0.5
180 1 0.489295 0.936074 0.5
238 1 0.541807 0.938704 0.5
156 1 0.411638 0.655676 0.5
159 1 0.400706 0.80915 0.5
179 1 0.419628 0.996302 0.5
321 1 0.595216 0.796906 0.5
214 1 0.462276 0.506656 0.5
337 1 0.613091 0.0195017 0.5
334 1 0.665299 0.00913372 0.5
285 1 0.782092 0.450109 0.5
291 1 0.619863 0.477013 0.5
243 1 0.644233 0.0579132 0.5
259 1 0.698606 0.0537088 0.5
254 1 0.755414 0.0479795 0.5
248 1 0.681431 0.101156 0.5
265 1 0.729541 0.0916036 0.5
255 1 0.788546 0.0871577 0.5
247 1 0.626209 0.107289 0.5
347 1 0.761724 0.12956 0.5
292 1 0.675661 0.465268 0.5
253 1 0.659574 0.149173 0.5
258 1 0.715467 0.142829 0.5
257 1 0.642675 0.197516 0.5
262 1 0.693218 0.18834 0.5
263 1 0.747287 0.183332 0.5
252 1 0.604047 0.150937 0.5
192 1 0.621757 0.243502 0.5
261 1 0.67806 0.236472 0.5
268 1 0.726228 0.230724 0.5
269 1 0.780353 0.223741 0.5
267 1 0.706062 0.279033 0.5
264 1 0.755888 0.275371 0.5
266 1 0.651143 0.284987 0.5
275 1 0.792128 0.313737 0.5
277 1 0.623654 0.333892 0.5
272 1 0.681847 0.328915 0.5
273 1 0.737999 0.319537 0.5
286 1 0.603152 0.382875 0.5
282 1 0.661495 0.373609 0.5
278 1 0.718939 0.368567 0.5
274 1 0.771356 0.358025 0.5
283 1 0.697607 0.415745 0.5
279 1 0.752269 0.409629 0.5
287 1 0.640176 0.42203 0.5
284 1 0.729307 0.455146 0.5
339 1 0.721174 0.003279 0.5
289 1 0.760603 0.496832 0.5
260 1 0.79907 0.174387 0.5
338 1 0.688227 0.964739 0.5
297 1 0.653444 0.511376 0.5
288 1 0.710561 0.505908 0.5
295 1 0.792511 0.535124 0.5
307 1 0.638325 0.563372 0.5
298 1 0.689655 0.557226 0.5
293 1 0.741695 0.548927 0.5
299 1 0.727168 0.59584 0.5
294 1 0.78078 0.588917 0.5
311 1 0.618014 0.615593 0.5
302 1 0.671835 0.604929 0.5
309 1 0.757742 0.636973 0.5
308 1 0.653528 0.658494 0.5
303 1 0.705117 0.641386 0.5
312 1 0.636002 0.70513 0.5
313 1 0.689468 0.693599 0.5
314 1 0.738489 0.682781 0.5
316 1 0.622452 0.755439 0.5
317 1 0.669081 0.742107 0.5
324 1 0.723753 0.731728 0.5
318 1 0.773469 0.7233 0.5
323 1 0.709747 0.780592 0.5
389 1 0.758888 0.769749 0.5
398 1 0.788895 0.950016 0.5
322 1 0.657654 0.789388 0.5
241 1 0.629253 0.97149 0.5
336 1 0.63517 0.834619 0.5
328 1 0.687429 0.829558 0.5
325 1 0.738398 0.818541 0.5
331 1 0.6119 0.887884 0.5
332 1 0.669078 0.875952 0.5
333 1 0.722435 0.868172 0.5
393 1 0.776294 0.861575 0.5
326 1 0.654219 0.925002 0.5
329 1 0.707001 0.916142 0.5
395 1 0.760833 0.908715 0.5
310 1 0.789172 0.67462 0.5
335 1 0.737766 0.957233 0.5
330 1 0.791639 0.808508 0.5
225 1 0.602793 0.664978 0.5
301 1 0.601567 0.524594 0.5
244 1 0.7712 0.999494 0.5
399 1 0.855638 0.0262861 0.5
2 1 0.912743 0.0186717 0.5
13 1 0.960939 0.0123715 0.5
52 1 0.999282 0.430189 0.5
8 1 0.941577 0.0607473 0.5
56 1 0.974547 0.475405 0.5
245 1 0.84193 0.0750536 0.5
343 1 0.891763 0.0701049 0.5
6 1 0.979479 0.101547 0.5
345 1 0.82062 0.127279 0.5
341 1 0.871373 0.119055 0.5
342 1 0.924026 0.110467 0.5
350 1 0.851456 0.167535 0.5
250 1 0.902687 0.161838 0.5
346 1 0.957655 0.146645 0.5
351 1 0.88095 0.210934 0.5
348 1 0.94052 0.199499 0.5
290 1 0.818941 0.488281 0.5
353 1 0.828779 0.215356 0.5
355 1 0.969719 0.238754 0.5
270 1 0.807283 0.263822 0.5
354 1 0.864392 0.255805 0.5
356 1 0.914206 0.246486 0.5
359 1 0.844706 0.300857 0.5
367 1 0.896574 0.294784 0.5
360 1 0.947514 0.287899 0.5
362 1 0.827579 0.35368 0.5
363 1 0.87726 0.343513 0.5
41 1 0.929546 0.337528 0.5
36 1 0.982126 0.338822 0.5
369 1 0.90903 0.383149 0.5
46 1 0.96217 0.382729 0.5
352 1 0.987259 0.188488 0.5
366 1 0.861012 0.396165 0.5
365 1 0.838488 0.442286 0.5
370 1 0.894915 0.437763 0.5
51 1 0.945989 0.434444 0.5
372 1 0.872836 0.483197 0.5
280 1 0.807916 0.403741 0.5
249 1 0.803873 0.038558 0.5
373 1 0.923921 0.484759 0.5
357 1 0.997846 0.290129 0.5
368 1 0.853058 0.533763 0.5
371 1 0.903296 0.546481 0.5
376 1 0.954867 0.531404 0.5
378 1 0.986554 0.570404 0.5
300 1 0.832057 0.580084 0.5
374 1 0.879015 0.594592 0.5
375 1 0.931084 0.589574 0.5
304 1 0.815201 0.630135 0.5
380 1 0.916811 0.646837 0.5
377 1 0.964104 0.628849 0.5
3 1 0.979821 0.962039 0.5
305 1 0.864913 0.644073 0.5
384 1 0.940755 0.691517 0.5
319 1 0.830943 0.706078 0.5
315 1 0.888845 0.691563 0.5
385 1 0.977499 0.734003 0.5
386 1 0.868502 0.741044 0.5
383 1 0.920465 0.736307 0.5
320 1 0.817229 0.755247 0.5
388 1 0.955023 0.77907 0.5
392 1 0.84563 0.797146 0.5
387 1 0.89615 0.782542 0.5
81 1 0.990333 0.822249 0.5
394 1 0.834336 0.850511 0.5
390 1 0.885536 0.837171 0.5
391 1 0.938315 0.828974 0.5
397 1 0.866388 0.891512 0.5
91 1 0.918546 0.879382 0.5
86 1 0.977946 0.875809 0.5
396 1 0.81318 0.897087 0.5
92 1 0.944989 0.922029 0.5
400 1 0.838994 0.941076 0.5
96 1 0.894476 0.930561 0.5
340 1 0.823496 0.989898 0.5
1 1 0.87666 0.978612 0.5
97 1 0.926704 0.972046 0.5
381 1 0.985614 0.673332 0.5
