ITEM: TIMESTEP
100000
ITEM: NUMBER OF ATOMS
400
ITEM: BOX BOUNDS pp pp pp
0.0000000000000000e+00 2.1081851067789195e+01
0.0000000000000000e+00 2.1081851067789195e+01
-5.2704627669472992e-01 5.2704627669472992e-01
ITEM: ATOMS id type xs ys zs
12 1 0.148393 0.460472 0.5
388 1 0.0908413 0.0984913 0.5
21 1 0.142741 0.0836268 0.5
283 1 0.170573 0.184548 0.5
76 1 0.0873403 0.14554 0.5
286 1 0.140822 0.136832 0.5
362 1 0.00639675 0.208186 0.5
145 1 0.164794 0.272291 0.5
153 1 0.139204 0.229409 0.5
75 1 0.075218 0.203882 0.5
314 1 0.0892896 0.250869 0.5
187 1 0.0262403 0.29832 0.5
275 1 0.119862 0.317662 0.5
37 1 0.0437076 0.238753 0.5
68 1 0.172838 0.319462 0.5
227 1 0.104581 0.47869 0.5
306 1 0.176468 0.0462073 0.5
208 1 0.0721654 0.440995 0.5
84 1 0.0770553 0.297474 0.5
134 1 0.0203029 0.0350565 0.5
301 1 0.0446911 0.121962 0.5
339 1 0.0914625 0.360567 0.5
101 1 0.0544656 0.394309 0.5
110 1 0.0269043 0.345492 0.5
229 1 0.0643737 0.06233 0.5
341 1 0.119981 0.180465 0.5
254 1 0.023543 0.446774 0.5
83 1 0.0279956 0.163981 0.5
380 1 0.18479 0.371016 0.5
62 1 0.135269 0.36215 0.5
140 1 0.0559192 0.488897 0.5
5 1 0.111637 0.406798 0.5
106 1 0.15623 0.415035 0.5
327 1 0.18288 0.115781 0.5
34 1 0.022218 0.0821288 0.5
155 1 0.131185 0.0380766 0.5
77 1 0.0572532 -0.000411592 0.5
358 1 0.166343 0.822721 0.5
274 1 0.148829 0.903761 0.5
332 1 0.00955088 0.988685 0.5
354 1 0.173539 0.548105 0.5
203 1 0.116055 0.539311 0.5
23 1 0.0538224 0.684217 0.5
38 1 0.177237 0.754301 0.5
360 1 0.130153 0.772919 0.5
46 1 0.126079 0.630262 0.5
52 1 0.0997966 0.58757 0.5
355 1 0.0739991 0.63949 0.5
39 1 0.146875 0.583887 0.5
152 1 0.0370025 0.733755 0.5
307 1 0.0714936 0.546798 0.5
88 1 0.176554 0.625372 0.5
349 1 0.0692536 0.77513 0.5
154 1 0.101002 0.687059 0.5
182 1 0.0494513 0.823435 0.5
346 1 0.0796839 0.729784 0.5
364 1 0.0973048 0.820544 0.5
299 1 0.128743 0.85877 0.5
57 1 0.0197585 0.857934 0.5
51 1 0.115661 0.935923 0.5
81 1 0.0822982 0.870594 0.5
164 1 0.0534507 0.599051 0.5
118 1 0.015258 0.655004 0.5
130 1 0.0443654 0.906673 0.5
271 1 0.158895 0.950914 0.5
200 1 0.179872 0.869347 0.5
392 1 0.0625261 0.948325 0.5
315 1 0.152737 0.674694 0.5
382 1 0.198934 0.585364 0.5
395 1 0.000159399 0.934815 0.5
371 1 0.0224037 0.562165 0.5
43 1 0.0100665 0.775528 0.5
24 1 0.107717 0.983859 0.5
162 1 0.137717 0.727798 0.5
273 1 0.19116 0.704345 0.5
195 1 0.00793418 0.606397 0.5
381 1 0.194248 0.917279 0.5
67 1 0.155058 0.99592 0.5
136 1 0.171181 0.504577 0.5
144 1 0.232264 0.0485893 0.5
348 1 0.224365 0.0968667 0.5
211 1 0.398069 0.233927 0.5
55 1 0.34911 0.00627213 0.5
266 1 0.238122 0.398439 0.5
324 1 0.283931 0.0693153 0.5
70 1 0.198267 0.233869 0.5
48 1 0.263755 0.121022 0.5
207 1 0.304177 0.0280013 0.5
123 1 0.353402 0.202762 0.5
279 1 0.315851 0.151934 0.5
374 1 0.267414 0.165483 0.5
117 1 0.321577 0.0987239 0.5
241 1 0.217058 0.150915 0.5
214 1 0.400623 0.284866 0.5
125 1 0.26326 0.317683 0.5
25 1 0.346133 0.256499 0.5
399 1 0.329379 0.384277 0.5
244 1 0.296156 0.20154 0.5
385 1 0.362855 0.311047 0.5
16 1 0.321284 0.438997 0.5
245 1 0.273261 0.251109 0.5
293 1 0.369281 0.0961157 0.5
151 1 0.260832 0.00850266 0.5
246 1 0.203914 0.00802846 0.5
394 1 0.308573 0.285487 0.5
255 1 0.237776 0.204656 0.5
248 1 0.268389 0.434361 0.5
54 1 0.37081 0.362976 0.5
104 1 0.390643 0.466374 0.5
60 1 0.302561 0.345584 0.5
295 1 0.368549 0.422898 0.5
19 1 0.348464 0.0548205 0.5
163 1 0.337662 0.482072 0.5
53 1 0.29015 0.475097 0.5
71 1 0.284332 0.388317 0.5
249 1 0.203006 0.426933 0.5
243 1 0.220544 0.340131 0.5
291 1 0.36007 0.152569 0.5
226 1 0.218404 0.279067 0.5
196 1 0.214945 0.470689 0.5
4 1 0.396793 0.187391 0.5
40 1 0.269588 0.8702 0.5
334 1 0.346413 0.946356 0.5
294 1 0.304387 0.974772 0.5
204 1 0.351467 0.565007 0.5
135 1 0.224368 0.54361 0.5
109 1 0.246599 0.914801 0.5
213 1 0.362952 0.843174 0.5
342 1 0.329442 0.603447 0.5
281 1 0.364882 0.79322 0.5
206 1 0.314094 0.521528 0.5
172 1 0.391652 0.923961 0.5
366 1 0.328703 0.65193 0.5
219 1 0.339249 0.890349 0.5
398 1 0.337687 0.705124 0.5
114 1 0.231325 0.616378 0.5
161 1 0.273247 0.593829 0.5
94 1 0.273655 0.644404 0.5
337 1 0.293547 0.687809 0.5
267 1 0.306025 0.923243 0.5
396 1 0.230379 0.674064 0.5
7 1 0.265401 0.77032 0.5
376 1 0.269598 0.822278 0.5
178 1 0.394248 0.874172 0.5
210 1 0.213927 0.795478 0.5
112 1 0.314107 0.741998 0.5
156 1 0.382319 0.744451 0.5
97 1 0.256049 0.715464 0.5
377 1 0.222987 0.748336 0.5
66 1 0.38305 0.511409 0.5
258 1 0.319495 0.78803 0.5
120 1 0.385276 0.600108 0.5
257 1 0.22392 0.871735 0.5
252 1 0.382554 0.662622 0.5
278 1 0.216016 0.962577 0.5
20 1 0.312974 0.852855 0.5
356 1 0.276756 0.544959 0.5
92 1 0.390199 0.973786 0.5
141 1 0.263699 0.957854 0.5
185 1 0.252287 0.501804 0.5
15 1 0.446364 0.297881 0.5
177 1 0.565782 0.41767 0.5
28 1 0.497739 0.0548671 0.5
347 1 0.59445 0.185234 0.5
148 1 0.448958 0.101926 0.5
87 1 0.411545 0.382375 0.5
292 1 0.456678 0.0387922 0.5
65 1 0.547186 0.0565664 0.5
30 1 0.576372 0.0974568 0.5
329 1 0.575778 0.362813 0.5
169 1 0.410355 0.0713861 0.5
47 1 0.514948 0.113389 0.5
225 1 0.403985 0.132159 0.5
236 1 0.584478 0.0208027 0.5
184 1 0.429464 0.496024 0.5
122 1 0.437 0.165702 0.5
369 1 0.482817 0.149219 0.5
319 1 0.463998 0.346206 0.5
11 1 0.483909 0.394136 0.5
234 1 0.415491 0.331572 0.5
318 1 0.443236 0.231837 0.5
198 1 0.540768 0.223866 0.5
59 1 0.481607 0.200571 0.5
284 1 0.516841 0.0136348 0.5
26 1 0.524383 0.180653 0.5
393 1 0.486334 0.247044 0.5
235 1 0.589035 0.230128 0.5
69 1 0.497893 0.294947 0.5
189 1 0.537541 0.330447 0.5
159 1 0.551084 0.272413 0.5
336 1 0.413394 0.0238756 0.5
174 1 0.529963 0.388802 0.5
343 1 0.510359 0.44828 0.5
98 1 0.554077 0.463285 0.5
363 1 0.556436 0.145689 0.5
340 1 0.595112 0.492626 0.5
220 1 0.464787 0.461606 0.5
361 1 0.433811 0.427374 0.5
331 1 0.582159 0.316746 0.5
303 1 0.485826 0.757833 0.5
72 1 0.519395 0.955936 0.5
61 1 0.450049 0.549469 0.5
261 1 0.436689 0.896431 0.5
240 1 0.567382 0.932574 0.5
116 1 0.556043 0.630766 0.5
6 1 0.513964 0.648737 0.5
247 1 0.507058 0.54753 0.5
321 1 0.557501 0.57224 0.5
372 1 0.555177 0.697778 0.5
335 1 0.473336 0.508249 0.5
160 1 0.43559 0.595411 0.5
170 1 0.50561 0.806672 0.5
232 1 0.445759 0.782633 0.5
180 1 0.530573 0.746517 0.5
216 1 0.589918 0.837019 0.5
328 1 0.464347 0.68916 0.5
333 1 0.567983 0.527133 0.5
230 1 0.443495 0.732557 0.5
31 1 0.539771 0.844529 0.5
17 1 0.510051 0.697615 0.5
289 1 0.557735 0.982002 0.5
288 1 0.57139 0.795677 0.5
260 1 0.401485 0.55669 0.5
351 1 0.528726 0.904148 0.5
212 1 0.468418 0.833617 0.5
14 1 0.424732 0.646792 0.5
49 1 0.485562 0.592202 0.5
282 1 0.414409 0.693633 0.5
150 1 0.475099 0.985665 0.5
128 1 0.490812 0.871956 0.5
223 1 0.484409 0.921985 0.5
176 1 0.443264 0.944129 0.5
397 1 0.576235 0.749277 0.5
79 1 0.572234 0.877423 0.5
179 1 0.471273 0.640481 0.5
50 1 0.41332 0.826143 0.5
375 1 0.591875 0.660581 0.5
309 1 0.592136 0.601513 0.5
9 1 0.5261 0.500313 0.5
90 1 0.709794 0.461863 0.5
298 1 0.675546 0.0383588 0.5
383 1 0.657527 0.302192 0.5
100 1 0.761766 0.382442 0.5
32 1 0.741664 0.33091 0.5
390 1 0.793271 0.422245 0.5
264 1 0.677347 0.0863011 0.5
188 1 0.669453 0.364206 0.5
191 1 0.724936 0.12155 0.5
115 1 0.6629 0.461651 0.5
149 1 0.795058 0.182772 0.5
391 1 0.601992 0.13678 0.5
175 1 0.703661 0.161227 0.5
386 1 0.759346 0.470048 0.5
202 1 0.774204 0.0163335 0.5
272 1 0.662472 0.132553 0.5
201 1 0.747842 0.191276 0.5
379 1 0.63234 0.0635246 0.5
131 1 0.789471 0.111163 0.5
308 1 0.643657 0.17763 0.5
277 1 0.722639 0.0296958 0.5
36 1 0.627472 0.336035 0.5
268 1 0.63532 0.224639 0.5
352 1 0.735969 0.237324 0.5
205 1 0.713527 0.373162 0.5
387 1 0.774319 0.275306 0.5
165 1 0.689738 0.20757 0.5
181 1 0.726409 0.28391 0.5
56 1 0.677944 0.248832 0.5
142 1 0.6957 0.326692 0.5
10 1 0.645245 0.403124 0.5
233 1 0.621627 0.26778 0.5
82 1 0.743693 0.424277 0.5
113 1 0.603712 0.445793 0.5
350 1 0.692386 0.414122 0.5
256 1 0.765956 0.14958 0.5
183 1 0.748289 0.0710115 0.5
78 1 0.793267 0.0597929 0.5
312 1 0.789494 0.330105 0.5
253 1 0.699458 0.982743 0.5
326 1 0.784899 0.833605 0.5
305 1 0.774127 0.557527 0.5
344 1 0.750237 0.868487 0.5
127 1 0.638111 0.676525 0.5
224 1 0.677958 0.609538 0.5
86 1 0.731793 0.57208 0.5
370 1 0.646257 0.576994 0.5
251 1 0.77321 0.604055 0.5
265 1 0.632096 0.624758 0.5
3 1 0.728337 0.620488 0.5
320 1 0.740101 0.822774 0.5
353 1 0.724105 0.776155 0.5
250 1 0.728497 0.679947 0.5
218 1 0.646758 0.946514 0.5
132 1 0.686128 0.657519 0.5
129 1 0.759781 0.722417 0.5
378 1 0.679332 0.54604 0.5
368 1 0.771952 0.649604 0.5
143 1 0.692626 0.707409 0.5
270 1 0.655262 0.994062 0.5
102 1 0.781258 0.765008 0.5
367 1 0.697592 0.859672 0.5
237 1 0.672158 0.768458 0.5
42 1 0.765258 0.968716 0.5
27 1 0.638104 0.871713 0.5
317 1 0.650459 0.727067 0.5
310 1 0.754764 0.517618 0.5
18 1 0.610864 0.977906 0.5
197 1 0.630908 0.818256 0.5
45 1 0.674308 0.821566 0.5
280 1 0.645753 0.516965 0.5
276 1 0.67394 0.901157 0.5
285 1 0.705898 0.507563 0.5
192 1 0.605385 0.909633 0.5
322 1 0.766896 0.915216 0.5
242 1 0.714747 0.916841 0.5
41 1 0.621497 0.77486 0.5
137 1 0.797169 0.689 0.5
194 1 0.602917 0.712051 0.5
262 1 0.610699 0.547778 0.5
357 1 0.930133 0.379692 0.5
168 1 0.886328 0.350193 0.5
338 1 0.868606 0.0565104 0.5
13 1 0.933278 0.335738 0.5
139 1 0.824123 0.458963 0.5
231 1 0.983996 0.321454 0.5
22 1 0.829072 0.0311491 0.5
44 1 0.885214 0.396295 0.5
8 1 0.833805 0.0902046 0.5
297 1 0.981521 0.0595844 0.5
222 1 0.921518 0.430918 0.5
126 1 0.981069 0.167767 0.5
384 1 0.799226 0.236084 0.5
400 1 0.941727 0.136719 0.5
91 1 0.894775 0.142938 0.5
85 1 0.828715 0.142572 0.5
287 1 0.834856 0.207641 0.5
263 1 0.979249 0.421931 0.5
186 1 0.916102 0.0378728 0.5
146 1 0.933161 0.187721 0.5
157 1 0.871377 0.446736 0.5
199 1 0.985134 0.366152 0.5
373 1 0.998004 0.260864 0.5
95 1 0.865717 0.256692 0.5
105 1 0.904262 0.229994 0.5
302 1 0.880676 0.189391 0.5
359 1 0.936067 0.0878324 0.5
111 1 0.859273 0.307325 0.5
313 1 0.83838 0.405581 0.5
190 1 0.906732 0.296778 0.5
121 1 0.946203 0.273238 0.5
138 1 0.965975 0.463899 0.5
58 1 0.971737 0.0141154 0.5
311 1 0.819169 0.288725 0.5
107 1 0.828996 0.358763 0.5
389 1 0.890094 0.0961447 0.5
93 1 0.912445 0.477321 0.5
365 1 0.959397 0.22561 0.5
63 1 0.99856 0.122691 0.5
89 1 0.871275 0.0078712 0.5
345 1 0.813287 0.637483 0.5
259 1 0.979063 0.741383 0.5
119 1 0.819664 0.54301 0.5
304 1 0.973185 0.558201 0.5
325 1 0.899409 0.67947 0.5
221 1 0.865489 0.584461 0.5
73 1 0.822642 0.974591 0.5
296 1 0.928809 0.884827 0.5
209 1 0.916743 0.55533 0.5
215 1 0.945456 0.510238 0.5
193 1 0.97069 0.633411 0.5
29 1 0.865478 0.499477 0.5
158 1 0.942261 0.595179 0.5
103 1 0.819526 0.590165 0.5
173 1 0.901661 0.624053 0.5
300 1 0.949691 0.675321 0.5
147 1 0.863419 0.710522 0.5
167 1 0.906707 0.729822 0.5
1 1 0.855293 0.655442 0.5
96 1 1.00115 0.699977 0.5
316 1 0.831018 0.843732 0.5
171 1 0.864063 0.762653 0.5
33 1 0.985491 0.888875 0.5
269 1 0.974439 0.841074 0.5
239 1 0.824707 0.786041 0.5
290 1 0.925009 0.770521 0.5
2 1 0.969466 0.967973 0.5
80 1 0.887141 0.856898 0.5
166 1 0.863363 0.807136 0.5
238 1 0.925646 0.821221 0.5
99 1 0.966669 0.790693 0.5
133 1 0.846861 0.894465 0.5
108 1 0.888972 0.907131 0.5
124 1 0.927251 0.931101 0.5
35 1 0.994988 0.510299 0.5
228 1 0.865768 0.951 0.5
217 1 0.913053 0.98104 0.5
323 1 0.826172 0.738004 0.5
64 1 0.812511 0.932835 0.5
74 1 0.803032 0.879132 0.5
330 1 0.805083 0.500915 0.5
