ITEM: TIMESTEP
100000
ITEM: NUMBER OF ATOMS
400
ITEM: BOX BOUNDS pp pp pp
0.0000000000000000e+00 2.0000000000000000e+01
0.0000000000000000e+00 2.0000000000000000e+01
-5.0000000000000000e-01 5.0000000000000000e-01
ITEM: ATOMS id type xs ys zs
288 1 0.0274745 0.0153144 0.5
101 1 0.109045 0.467545 0.5
129 1 0.197072 0.259876 0.5
42 1 0.00653319 0.430637 0.5
236 1 0.0822796 0.0336663 0.5
157 1 0.13932 0.042328 0.5
45 1 0.0415036 0.0647827 0.5
343 1 0.10325 0.0807287 0.5
69 1 0.049486 0.250885 0.5
263 1 0.0276528 0.486758 0.5
161 1 0.149406 0.097264 0.5
393 1 0.0302027 0.142275 0.5
347 1 0.0720372 0.116597 0.5
378 1 0.123745 0.141913 0.5
88 1 0.0812712 0.181158 0.5
295 1 0.171974 0.161835 0.5
353 1 0.0347717 0.198149 0.5
205 1 0.0956176 0.228044 0.5
359 1 0.183305 0.212504 0.5
372 1 0.191252 0.0712796 0.5
277 1 0.0620621 0.303402 0.5
276 1 0.137278 0.199253 0.5
251 1 0.142023 0.250722 0.5
300 1 0.161479 0.297191 0.5
230 1 0.0135268 0.289855 0.5
335 1 0.1017 0.277198 0.5
220 1 0.0349062 0.343932 0.5
95 1 0.0810657 0.363529 0.5
136 1 0.123381 0.327734 0.5
291 1 0.170634 0.344311 0.5
284 1 0.14181 0.383132 0.5
82 1 0.192453 0.405705 0.5
189 1 0.166261 0.489149 0.5
60 1 0.0466318 0.401746 0.5
53 1 0.111571 0.419779 0.5
238 1 0.0676764 0.45045 0.5
146 1 0.155544 0.441417 0.5
340 1 0.181456 0.016233 0.5
221 1 0.00335346 0.101252 0.5
57 1 0.00240911 0.38054 0.5
398 1 0.192752 0.587499 0.5
93 1 0.12211 0.520099 0.5
81 1 0.0287093 0.542372 0.5
70 1 0.077918 0.555354 0.5
384 1 0.175379 0.54251 0.5
227 1 0.0377974 0.591134 0.5
273 1 0.12701 0.56836 0.5
226 1 0.0090543 0.910372 0.5
215 1 0.162525 0.965373 0.5
186 1 0.0900636 0.602483 0.5
31 1 0.141596 0.618998 0.5
212 1 0.0480219 0.63846 0.5
392 1 0.112228 0.656466 0.5
326 1 0.0157603 0.960561 0.5
65 1 0.0504372 0.691455 0.5
78 1 0.157892 0.680204 0.5
355 1 0.00787791 0.727 0.5
265 1 0.113803 0.703122 0.5
206 1 0.161097 0.733686 0.5
246 1 0.0602676 0.739061 0.5
169 1 0.109064 0.751734 0.5
122 1 0.0288683 0.776499 0.5
278 1 0.0928695 0.796954 0.5
294 1 0.0724268 0.50396 0.5
204 1 0.136784 0.83087 0.5
142 1 0.153653 0.783503 0.5
270 1 0.0462988 0.826208 0.5
41 1 0.0940336 0.84879 0.5
195 1 0.172491 0.868101 0.5
160 1 0.0684398 0.979543 0.5
75 1 0.0583608 0.87542 0.5
139 1 0.101214 0.894018 0.5
77 1 0.18691 0.820764 0.5
13 1 0.115843 0.99876 0.5
196 1 0.148522 0.911727 0.5
123 1 0.0520646 0.928574 0.5
217 1 0.116647 0.948969 0.5
182 1 0.197577 0.647984 0.5
172 1 0.00758236 0.861356 0.5
187 1 0.00372267 0.679036 0.5
100 1 0.248337 0.481222 0.5
49 1 0.390543 0.283511 0.5
183 1 0.379627 0.0238636 0.5
388 1 0.230092 0.0395851 0.5
116 1 0.28069 0.0437989 0.5
102 1 0.330209 0.0567175 0.5
339 1 0.254863 0.087973 0.5
140 1 0.208392 0.309453 0.5
131 1 0.382525 0.0785568 0.5
14 1 0.301241 0.101717 0.5
311 1 0.348267 0.115302 0.5
368 1 0.263105 0.141615 0.5
259 1 0.319128 0.154113 0.5
331 1 0.224229 0.179508 0.5
103 1 0.275336 0.187717 0.5
29 1 0.36222 0.172864 0.5
309 1 0.244808 0.231179 0.5
179 1 0.319298 0.21535 0.5
313 1 0.37666 0.235261 0.5
51 1 0.340579 0.447205 0.5
97 1 0.290184 0.256083 0.5
235 1 0.339114 0.264743 0.5
249 1 0.247227 0.27833 0.5
55 1 0.305943 0.303336 0.5
185 1 0.323693 0.00688171 0.5
207 1 0.203721 0.45681 0.5
369 1 0.262729 0.324387 0.5
121 1 0.350841 0.312785 0.5
120 1 0.313078 0.352733 0.5
107 1 0.366633 0.358135 0.5
375 1 0.217346 0.357707 0.5
56 1 0.263408 0.385493 0.5
280 1 0.340595 0.397729 0.5
63 1 0.243463 0.431696 0.5
16 1 0.294574 0.427354 0.5
254 1 0.3877 0.409569 0.5
370 1 0.30705 0.482295 0.5
210 1 0.20054 0.122728 0.5
250 1 0.396393 0.127737 0.5
234 1 0.364209 0.493286 0.5
84 1 0.278068 0.519417 0.5
151 1 0.311544 0.960639 0.5
7 1 0.250103 0.560552 0.5
330 1 0.331849 0.535781 0.5
244 1 0.376942 0.554689 0.5
322 1 0.29435 0.585982 0.5
25 1 0.34207 0.590015 0.5
382 1 0.388623 0.610065 0.5
177 1 0.248432 0.60706 0.5
301 1 0.29916 0.63332 0.5
105 1 0.225378 0.991091 0.5
387 1 0.246006 0.662951 0.5
255 1 0.346421 0.640436 0.5
214 1 0.364493 0.975508 0.5
305 1 0.290137 0.682672 0.5
128 1 0.221933 0.853857 0.5
317 1 0.255546 0.719093 0.5
145 1 0.359823 0.694945 0.5
94 1 0.252066 0.946886 0.5
188 1 0.314991 0.725607 0.5
50 1 0.270109 0.765967 0.5
163 1 0.210527 0.759867 0.5
290 1 0.348344 0.77762 0.5
1 1 0.380658 0.742175 0.5
304 1 0.307469 0.807424 0.5
354 1 0.205112 0.706105 0.5
321 1 0.273502 0.850316 0.5
143 1 0.352375 0.826254 0.5
328 1 0.252723 0.897796 0.5
267 1 0.328894 0.87012 0.5
357 1 0.376596 0.877378 0.5
167 1 0.347524 0.915765 0.5
258 1 0.201166 0.917786 0.5
200 1 0.298581 0.911828 0.5
4 1 0.275842 0.992345 0.5
208 1 0.247431 0.808733 0.5
334 1 0.403832 0.800798 0.5
156 1 0.218478 0.52344 0.5
365 1 0.589935 0.14132 0.5
252 1 0.570199 0.0459613 0.5
54 1 0.43093 0.03432 0.5
262 1 0.481543 0.0607076 0.5
178 1 0.52536 0.0792769 0.5
283 1 0.434829 0.0818278 0.5
68 1 0.573966 0.0941815 0.5
338 1 0.52394 0.0310326 0.5
40 1 0.479598 0.114904 0.5
11 1 0.533225 0.132152 0.5
168 1 0.406879 0.458809 0.5
275 1 0.447797 0.15439 0.5
127 1 0.5041 0.167837 0.5
191 1 0.410686 0.183931 0.5
367 1 0.463494 0.204243 0.5
315 1 0.552377 0.184796 0.5
320 1 0.512998 0.21815 0.5
150 1 0.574768 0.227863 0.5
333 1 0.424951 0.233102 0.5
76 1 0.478798 0.25221 0.5
89 1 0.534614 0.264194 0.5
20 1 0.441938 0.284429 0.5
80 1 0.497923 0.296865 0.5
360 1 0.586266 0.276648 0.5
98 1 0.456382 0.471492 0.5
71 1 0.550381 0.308814 0.5
198 1 0.541219 0.464488 0.5
389 1 0.462269 0.334131 0.5
269 1 0.513172 0.346377 0.5
39 1 0.559674 0.362953 0.5
134 1 0.42303 0.374916 0.5
148 1 0.479855 0.382505 0.5
83 1 0.526386 0.398102 0.5
362 1 0.596075 0.476307 0.5
344 1 0.437187 0.420816 0.5
202 1 0.576521 0.422028 0.5
114 1 0.497459 0.436027 0.5
287 1 0.415505 0.32819 0.5
130 1 0.593882 0.00260435 0.5
253 1 0.476498 0.0030526 0.5
62 1 0.598017 0.325865 0.5
312 1 0.573108 0.747286 0.5
193 1 0.455583 0.537768 0.5
67 1 0.501558 0.962218 0.5
380 1 0.593971 0.659084 0.5
327 1 0.504769 0.550759 0.5
297 1 0.562547 0.563205 0.5
376 1 0.423068 0.570714 0.5
135 1 0.469228 0.587646 0.5
281 1 0.519266 0.597332 0.5
125 1 0.442615 0.628895 0.5
381 1 0.575396 0.611869 0.5
27 1 0.490723 0.639594 0.5
174 1 0.544492 0.654494 0.5
66 1 0.409841 0.515149 0.5
181 1 0.454721 0.677458 0.5
361 1 0.50549 0.689345 0.5
26 1 0.432151 0.755069 0.5
152 1 0.418337 0.84737 0.5
286 1 0.474472 0.72785 0.5
176 1 0.560543 0.701485 0.5
117 1 0.525415 0.73658 0.5
22 1 0.547767 0.97907 0.5
306 1 0.493696 0.771445 0.5
87 1 0.542777 0.791379 0.5
162 1 0.454344 0.801794 0.5
35 1 0.502431 0.821219 0.5
298 1 0.553122 0.843154 0.5
345 1 0.463861 0.86155 0.5
256 1 0.517458 0.883679 0.5
164 1 0.477425 0.912083 0.5
126 1 0.568876 0.889001 0.5
155 1 0.429406 0.898711 0.5
396 1 0.538699 0.9267 0.5
38 1 0.415986 0.988944 0.5
223 1 0.451042 0.953112 0.5
173 1 0.415169 0.70601 0.5
282 1 0.591667 0.794471 0.5
166 1 0.54334 0.512228 0.5
329 1 0.585625 0.942526 0.5
64 1 0.401395 0.658977 0.5
141 1 0.599671 0.526781 0.5
23 1 0.492883 0.503595 0.5
90 1 0.402431 0.940962 0.5
351 1 0.619699 0.0606813 0.5
386 1 0.673548 0.0562455 0.5
225 1 0.720953 0.0627958 0.5
34 1 0.643614 0.104122 0.5
325 1 0.777664 0.0814134 0.5
108 1 0.648158 0.151731 0.5
379 1 0.692519 0.109934 0.5
59 1 0.741957 0.115469 0.5
115 1 0.691863 0.172898 0.5
241 1 0.78321 0.131714 0.5
399 1 0.602212 0.190384 0.5
216 1 0.653595 0.203466 0.5
332 1 0.738828 0.179477 0.5
171 1 0.709423 0.0126667 0.5
165 1 0.772472 0.272165 0.5
33 1 0.671117 0.258199 0.5
341 1 0.701814 0.221702 0.5
12 1 0.636464 0.297426 0.5
138 1 0.718531 0.269028 0.5
233 1 0.754617 0.227908 0.5
247 1 0.683901 0.307709 0.5
17 1 0.730107 0.319332 0.5
350 1 0.645634 0.48712 0.5
44 1 0.647216 0.344724 0.5
257 1 0.697935 0.355599 0.5
285 1 0.77886 0.320987 0.5
222 1 0.658162 0.394422 0.5
147 1 0.709406 0.407125 0.5
73 1 0.746194 0.364047 0.5
79 1 0.628198 0.435374 0.5
10 1 0.678221 0.445839 0.5
242 1 0.733048 0.455557 0.5
260 1 0.626035 0.242167 0.5
218 1 0.759 0.412867 0.5
391 1 0.609208 0.381527 0.5
318 1 0.762139 0.0283544 0.5
2 1 0.64357 0.00699563 0.5
5 1 0.794104 0.373266 0.5
397 1 0.78483 0.464888 0.5
364 1 0.695808 0.490705 0.5
32 1 0.793059 0.179697 0.5
153 1 0.701478 0.967696 0.5
43 1 0.796081 0.996395 0.5
124 1 0.609106 0.863909 0.5
385 1 0.645927 0.536881 0.5
352 1 0.703623 0.539594 0.5
231 1 0.740956 0.504504 0.5
336 1 0.800159 0.596007 0.5
86 1 0.667997 0.579343 0.5
342 1 0.737175 0.574726 0.5
119 1 0.7498 0.982709 0.5
303 1 0.785171 0.797149 0.5
36 1 0.641929 0.671732 0.5
149 1 0.752645 0.6237 0.5
24 1 0.703473 0.626046 0.5
395 1 0.744426 0.694219 0.5
324 1 0.797408 0.643045 0.5
201 1 0.655832 0.718281 0.5
170 1 0.631696 0.771033 0.5
175 1 0.690816 0.675335 0.5
28 1 0.778616 0.745793 0.5
112 1 0.747008 0.844145 0.5
203 1 0.679457 0.781055 0.5
197 1 0.708114 0.734066 0.5
272 1 0.639836 0.818185 0.5
266 1 0.634758 0.624214 0.5
248 1 0.62874 0.963061 0.5
99 1 0.698794 0.824573 0.5
19 1 0.733301 0.78142 0.5
30 1 0.785512 0.936585 0.5
228 1 0.62215 0.912408 0.5
209 1 0.663639 0.864302 0.5
302 1 0.722343 0.8845 0.5
293 1 0.681229 0.920344 0.5
243 1 0.769674 0.890602 0.5
292 1 0.740455 0.933754 0.5
113 1 0.775581 0.53828 0.5
229 1 0.609727 0.707143 0.5
133 1 0.613307 0.575754 0.5
192 1 0.890847 0.0193749 0.5
310 1 0.806763 0.419902 0.5
358 1 0.920386 0.458984 0.5
47 1 0.842324 0.00335029 0.5
268 1 0.906313 0.0722775 0.5
374 1 0.938632 0.0379918 0.5
96 1 0.973492 0.462036 0.5
232 1 0.857618 0.0553333 0.5
92 1 0.921295 0.129939 0.5
85 1 0.956601 0.0957395 0.5
356 1 0.875551 0.111436 0.5
319 1 0.932854 0.180359 0.5
91 1 0.802992 0.227042 0.5
237 1 0.830862 0.143113 0.5
48 1 0.885576 0.158532 0.5
264 1 0.894882 0.211949 0.5
3 1 0.842379 0.192331 0.5
106 1 0.941793 0.227909 0.5
307 1 0.810455 0.0433479 0.5
349 1 0.838911 0.328836 0.5
289 1 0.873646 0.432657 0.5
261 1 0.974847 0.139984 0.5
194 1 0.819128 0.28334 0.5
296 1 0.865609 0.251354 0.5
159 1 0.964938 0.290632 0.5
383 1 0.916321 0.269492 0.5
390 1 0.924306 0.321847 0.5
271 1 0.878771 0.298999 0.5
8 1 0.884286 0.351868 0.5
371 1 0.986783 0.333742 0.5
373 1 0.951858 0.416924 0.5
274 1 0.946586 0.364981 0.5
366 1 0.822165 0.0948707 0.5
144 1 0.879219 0.482315 0.5
211 1 0.844196 0.38757 0.5
245 1 0.907688 0.400425 0.5
74 1 0.833513 0.466433 0.5
104 1 0.985047 0.051522 0.5
46 1 0.980127 0.196586 0.5
394 1 0.993049 0.243802 0.5
323 1 0.82065 0.513466 0.5
346 1 0.918414 0.505901 0.5
9 1 0.984933 0.516719 0.5
316 1 0.873486 0.530548 0.5
21 1 0.93583 0.548978 0.5
58 1 0.83621 0.56171 0.5
184 1 0.98541 0.567436 0.5
190 1 0.968617 0.943257 0.5
110 1 0.888034 0.576611 0.5
240 1 0.939654 0.607231 0.5
158 1 0.846927 0.611742 0.5
314 1 0.893566 0.645009 0.5
224 1 0.94984 0.653603 0.5
213 1 0.995219 0.621137 0.5
137 1 0.84291 0.664779 0.5
279 1 0.903096 0.690076 0.5
6 1 0.954249 0.704715 0.5
118 1 0.828647 0.766586 0.5
308 1 0.857429 0.721405 0.5
219 1 0.918419 0.737864 0.5
239 1 0.842875 0.815218 0.5
37 1 0.881004 0.767386 0.5
337 1 0.97207 0.759896 0.5
363 1 0.935299 0.795926 0.5
111 1 0.883702 0.971281 0.5
348 1 0.929149 0.989767 0.5
377 1 0.889347 0.820827 0.5
154 1 0.988666 0.805513 0.5
109 1 0.860068 0.866068 0.5
199 1 0.952981 0.846959 0.5
72 1 0.832764 0.955382 0.5
15 1 0.90673 0.878854 0.5
400 1 0.954067 0.898644 0.5
299 1 0.871752 0.91415 0.5
180 1 0.91922 0.942366 0.5
52 1 0.812279 0.855839 0.5
61 1 0.822858 0.907073 0.5
18 1 0.801808 0.694781 0.5
132 1 0.977609 0.999557 0.5
