LAMMPS (15 Sep 2022)
OMP_NUM_THREADS environment is not set. Defaulting to 1 thread. (src/comm.cpp:98)
  using 1 OpenMP thread(s) per MPI task
# 2d WCA system, random initial configuration

#variable density equal 0.5
variable initial_temperature equal 3.0
variable final_temperature equal 0.1
variable dt equal 0.01
variable tau equal 100*${dt}
variable tau equal 100*0.01
variable thermo_time equal 50000*${dt}
variable thermo_time equal 50000*0.01
variable equil_steps equal 50000
variable run_steps equal 100000

units           lj
atom_style      atomic
dimension       2

lattice         sq ${density}
lattice         sq 1.0
Lattice spacing in x,y,z = 1 1 1
region          box block 0 20 0 20 -0.5 0.5
# number of atom types
create_box      1 box
Created orthogonal box = (0 0 -0.5) to (20 20 0.5)
  5 by 2 by 1 MPI processor grid
create_atoms    1 box
Created 400 atoms
  using lattice units in orthogonal box = (0 0 -0.5) to (20 20 0.5)
  create_atoms CPU = 0.000 seconds
mass 1 1.0

velocity all create ${initial_temperature} 12345
velocity all create 3 12345

pair_style      lj/cut 1.0
#type_1 type_2 epsilon sigma cutoff
pair_coeff      1 1 10.0 0.89089871814 1.0
pair_modify shift yes

timestep ${dt}
timestep 0.01
thermo ${thermo_time}
thermo 500

fix 1 all nvt temp ${initial_temperature} ${initial_temperature} ${tau}
fix 1 all nvt temp 3 ${initial_temperature} ${tau}
fix 1 all nvt temp 3 3 ${tau}
fix 1 all nvt temp 3 3 1
run ${equil_steps}
run 50000
Generated 0 of 0 mixed pair_coeff terms from geometric mixing rule
Neighbor list info ...
  update: every = 1 steps, delay = 0 steps, check = yes
  max neighbors/atom: 2000, page size: 100000
  master list distance cutoff = 1.3
  ghost atom cutoff = 1.3
  binsize = 0.65, bins = 31 31 2
  1 neighbor lists, perpetual/occasional/extra = 1 0 0
  (1) pair lj/cut, perpetual
      attributes: half, newton on
      pair build: half/bin/atomonly/newton
      stencil: half/bin/2d
      bin: standard
Per MPI rank memory allocation (min/avg/max) = 3.048 | 3.048 | 3.048 Mbytes
   Step          Temp          E_pair         E_mol          TotEng         Press     
         0   3              0              0              2.9925         2.9925       
       500   3.1087769      1.7632254      0              4.8642304      33.530986    
      1000   3.0844445      1.7696202      0              4.8463536      33.227441    
      1500   3.028728       1.4531046      0              4.4742607      29.151702    
      2000   3.1486891      1.6385064      0              4.7793239      32.615784    
      2500   3.1921528      1.4688179      0              4.6529903      30.176153    
      3000   3.0233609      1.8160381      0              4.8318406      34.577245    
      3500   2.9463572      1.4357549      0              4.3747462      28.970215    
      4000   3.1475134      1.3438754      0              4.4835199      28.719702    
      4500   2.9435684      1.5012286      0              4.4374381      30.718515    
      5000   2.9602867      1.4524666      0              4.4053526      29.616884    
      5500   2.9438038      1.7571915      0              4.6936357      34.148026    
      6000   3.2346685      1.6380425      0              4.8646243      32.340188    
      6500   2.9428565      1.7363751      0              4.6718745      33.344124    
      7000   2.9390583      1.57047        0              4.5021806      30.717587    
      7500   3.1576509      1.5096763      0              4.659433       30.796954    
      8000   3.2487666      1.3343308      0              4.5749754      27.964053    
      8500   2.9454234      1.625096       0              4.5631559      32.092157    
      9000   2.920866       1.6334623      0              4.5470262      32.130284    
      9500   3.0397948      1.7334506      0              4.7656459      33.12705     
     10000   2.9786156      1.6642437      0              4.6354127      32.170519    
     10500   3.2065028      1.7363777      0              4.9348642      33.124526    
     11000   3.0416698      1.4783001      0              4.5123656      30.634775    
     11500   2.8500548      1.6304293      0              4.4733589      31.754809    
     12000   3.0279479      1.6376616      0              4.6580396      32.118054    
     12500   2.9610896      1.6040221      0              4.557709       31.598947    
     13000   3.0739002      1.4487586      0              4.514974       29.393099    
     13500   3.0006176      1.5367681      0              4.5298841      30.542078    
     14000   3.1183141      1.4961878      0              4.6067061      29.588533    
     14500   3.1075177      1.5127397      0              4.6124886      31.040812    
     15000   2.950478       1.5497794      0              4.4928813      30.970766    
     15500   2.9499334      1.5535623      0              4.4961208      30.635096    
     16000   2.9145565      1.4250299      0              4.3323001      28.996527    
     16500   3.0492894      1.5248463      0              4.5665125      30.731068    
     17000   3.1229034      1.4758402      0              4.5909363      30.459289    
     17500   2.8438846      1.4988827      0              4.3356576      29.885634    
     18000   2.9583586      1.7425701      0              4.6935328      33.456794    
     18500   2.8931854      1.6969764      0              4.5829288      32.739799    
     19000   3.1364171      1.3974629      0              4.526039       28.64916     
     19500   2.8646252      1.5393196      0              4.3967832      30.420847    
     20000   2.9852677      1.6090279      0              4.5868324      31.585315    
     20500   3.0740795      1.7648886      0              4.8312829      33.52088     
     21000   3.0420141      1.583289       0              4.6176981      31.156415    
     21500   3.0656302      1.4592971      0              4.5172632      29.65336     
     22000   3.091728       1.5092099      0              4.5932086      30.919615    
     22500   3.1701125      1.479208       0              4.6413951      30.466634    
     23000   3.36812        1.3684995      0              4.7281992      28.916852    
     23500   3.0827655      1.5346009      0              4.6096595      31.216268    
     24000   3.0974182      1.5434103      0              4.6330849      31.734975    
     24500   3.3119801      1.5652319      0              4.8689321      31.46966     
     25000   3.1661465      1.5139203      0              4.6721515      30.582038    
     25500   3.198873       1.6818988      0              4.8727746      33.178142    
     26000   3.1109281      1.6692349      0              4.7723857      32.141323    
     26500   3.1363028      1.5964405      0              4.7249026      31.909835    
     27000   3.0288671      1.600686       0              4.621981       32.277281    
     27500   2.8975895      1.8068743      0              4.6972198      34.045123    
     28000   3.1335274      1.5845647      0              4.7102583      31.938963    
     28500   3.0532957      1.6825832      0              4.7282457      32.944762    
     29000   3.1030001      1.7285066      0              4.8237492      33.087874    
     29500   3.2881482      1.6075492      0              4.8874771      31.830688    
     30000   3.1825878      1.6548053      0              4.8294366      32.228354    
     30500   3.4363111      1.4987865      0              4.9265069      30.88168     
     31000   3.1326359      1.7504833      0              4.8752876      33.373109    
     31500   3.0664165      1.5516153      0              4.6103658      30.97189     
     32000   3.3508468      1.6118916      0              4.9543612      32.321549    
     32500   2.8932529      1.6156537      0              4.5016734      31.959613    
     33000   2.9353727      1.5316817      0              4.4597159      31.318772    
     33500   3.012943       1.536799       0              4.5422097      31.005517    
     34000   2.8356091      1.6888514      0              4.5173714      32.373164    
     34500   2.9965795      1.5880594      0              4.5771475      31.304685    
     35000   3.0855683      1.6650859      0              4.7429403      32.62601     
     35500   3.3663773      1.3224726      0              4.680434       28.515114    
     36000   3.3838099      1.6129589      0              4.9883093      32.278905    
     36500   2.9318223      1.5693961      0              4.4938889      30.816256    
     37000   3.0652124      1.5231508      0              4.5807002      31.119384    
     37500   3.153935       1.7149442      0              4.8609944      33.943385    
     38000   2.9370633      1.5192159      0              4.4489365      29.866189    
     38500   3.0490914      1.4334978      0              4.4749665      29.027564    
     39000   2.990247       1.7470323      0              4.7298037      33.876844    
     39500   3.1160853      1.9410582      0              5.0493533      35.973841    
     40000   2.9859893      1.5126908      0              4.4912152      30.222062    
     40500   3.1114236      1.4177635      0              4.5214085      28.686649    
     41000   2.8642863      1.5108534      0              4.3679789      30.055356    
     41500   3.1175971      1.4725113      0              4.5823144      30.231727    
     42000   2.87102        1.4313442      0              4.2951867      29.995401    
     42500   2.8732565      1.6483722      0              4.5144456      31.381404    
     43000   2.9513865      1.6210704      0              4.5650785      32.136631    
     43500   3.0980117      1.6949505      0              4.7852172      32.888806    
     44000   3.191862       1.2154342      0              4.3993166      27.022953    
     44500   2.9735835      1.6188857      0              4.5850352      31.903144    
     45000   3.1919564      1.6417427      0              4.8257191      32.429879    
     45500   2.9798795      1.5699194      0              4.5423492      30.991795    
     46000   3.0735685      1.4942177      0              4.5601023      29.954844    
     46500   3.0964779      1.7354265      0              4.8241632      33.092459    
     47000   3.3019147      1.7104259      0              5.0040858      33.417216    
     47500   3.0184118      1.5089398      0              4.5198056      30.403779    
     48000   2.8573649      1.6545669      0              4.5047884      32.342869    
     48500   2.998363       1.457842       0              4.448709       29.788037    
     49000   3.0586329      1.6024062      0              4.6533926      32.208647    
     49500   2.8949469      1.5796691      0              4.4673786      31.619231    
     50000   3.0455713      1.5032788      0              4.5412361      30.825202    
Loop time of 0.70492 on 10 procs for 50000 steps with 400 atoms

Performance: 61283567.468 tau/day, 70930.055 timesteps/s, 28.372 Matom-step/s
99.3% CPU use with 10 MPI tasks x 1 OpenMP threads

MPI task timing breakdown:
Section |  min time  |  avg time  |  max time  |%varavg| %total
---------------------------------------------------------------
Pair    | 0.067041   | 0.068989   | 0.070737   |   0.4 |  9.79
Neigh   | 0.09435    | 0.095404   | 0.096133   |   0.2 | 13.53
Comm    | 0.31387    | 0.31936    | 0.3256     |   0.7 | 45.31
Output  | 0.0011609  | 0.0015548  | 0.0050328  |   2.9 |  0.22
Modify  | 0.11252    | 0.11713    | 0.12325    |   0.9 | 16.62
Other   |            | 0.1025     |            |       | 14.54

Nlocal:             40 ave          42 max          38 min
Histogram: 1 0 4 0 0 0 0 4 0 1
Nghost:           42.5 ave          47 max          39 min
Histogram: 2 0 0 2 0 4 1 0 0 1
Neighs:          105.6 ave         116 max          98 min
Histogram: 2 1 0 2 1 1 2 0 0 1

Total # of neighbors = 1056
Ave neighs/atom = 2.64
Neighbor list builds = 16864
Dangerous builds = 0

unfix 1
dump           1 all atom ${run_steps} 2dWCA_T${final_temperature}_d${density}_N${run_steps}.lammpstrj
dump           1 all atom 100000 2dWCA_T${final_temperature}_d${density}_N${run_steps}.lammpstrj
dump           1 all atom 100000 2dWCA_T0.1_d${density}_N${run_steps}.lammpstrj
dump           1 all atom 100000 2dWCA_T0.1_d1.0_N${run_steps}.lammpstrj
dump           1 all atom 100000 2dWCA_T0.1_d1.0_N100000.lammpstrj
dump           2 all dcd ${thermo_time} 2dWCA_T${final_temperature}_d${density}_N${run_steps}.dcd
dump           2 all dcd 500 2dWCA_T${final_temperature}_d${density}_N${run_steps}.dcd
dump           2 all dcd 500 2dWCA_T0.1_d${density}_N${run_steps}.dcd
dump           2 all dcd 500 2dWCA_T0.1_d1.0_N${run_steps}.dcd
dump           2 all dcd 500 2dWCA_T0.1_d1.0_N100000.dcd
fix 1 all nvt temp ${initial_temperature} ${final_temperature} ${tau}
fix 1 all nvt temp 3 ${final_temperature} ${tau}
fix 1 all nvt temp 3 0.1 ${tau}
fix 1 all nvt temp 3 0.1 1

run ${run_steps}
run 100000
Generated 0 of 0 mixed pair_coeff terms from geometric mixing rule
Per MPI rank memory allocation (min/avg/max) = 3.071 | 3.071 | 3.071 Mbytes
   Step          Temp          E_pair         E_mol          TotEng         Press     
     50000   3.0455713      1.5032788      0              4.5412361      30.825202    
     50500   2.9761407      1.671008       0              4.6397083      32.218013    
     51000   2.660795       1.7426614      0              4.3968044      33.294269    
     51500   2.9720542      1.3739412      0              4.3385652      29.237753    
     52000   2.8533859      1.5923079      0              4.4385603      31.221252    
     52500   3.0829598      1.4172969      0              4.4925493      29.850395    
     53000   3.3006796      1.7245845      0              5.0170124      33.083976    
     53500   3.0290551      1.509552       0              4.5310345      30.828587    
     54000   2.8788589      1.6142643      0              4.485926       31.312814    
     54500   2.9175633      1.6115708      0              4.5218402      31.019858    
     55000   2.7824246      1.4734386      0              4.2489072      29.718905    
     55500   2.8254326      1.3870915      0              4.2054605      28.266251    
     56000   2.9176226      1.3938911      0              4.3042196      29.316274    
     56500   3.0199756      1.5905185      0              4.6029441      31.768365    
     57000   3.0754258      1.4443362      0              4.5120734      29.767325    
     57500   2.8993946      1.6018379      0              4.4939839      31.076768    
     58000   3.056196       1.3983105      0              4.446866       29.286341    
     58500   2.6444201      1.7008816      0              4.3386907      32.601596    
     59000   3.0003553      1.2939731      0              4.2868276      27.83676     
     59500   2.479313       1.2106077      0              3.6837224      25.935512    
     60000   2.626629       1.3169048      0              3.9369672      27.239809    
     60500   2.6367882      1.4017557      0              4.0319519      28.188779    
     61000   2.8002539      1.2467429      0              4.0399962      27.149133    
     61500   2.6556436      1.3799391      0              4.0289436      28.333219    
     62000   2.7188962      1.4082546      0              4.1203536      28.739009    
     62500   2.7394585      1.2595098      0              3.9921197      26.308067    
     63000   2.5526182      1.2437023      0              3.789939       26.400552    
     63500   2.5759979      1.3709018      0              3.9404597      27.90733     
     64000   2.7778986      1.2485184      0              4.0194722      27.382797    
     64500   2.505998       1.396763       0              3.896496       28.0855      
     65000   2.4628651      1.3500188      0              3.8067268      27.734903    
     65500   2.4016378      1.3087574      0              3.7043911      27.169968    
     66000   2.4154883      1.1892174      0              3.5986669      25.755888    
     66500   2.4102937      1.1540716      0              3.5583396      25.383747    
     67000   2.388302       1.1785358      0              3.560867       25.218921    
     67500   2.5027479      1.3436492      0              3.8401402      27.656277    
     68000   2.5980134      1.4277341      0              4.0192525      28.852561    
     68500   2.5337475      1.2115934      0              3.7390065      26.417873    
     69000   2.4174869      1.2210973      0              3.6325404      26.268799    
     69500   2.4384747      1.3017798      0              3.7341583      27.559117    
     70000   2.3665274      1.1223613      0              3.4829724      24.986568    
     70500   2.4190702      1.178089       0              3.5911115      25.71888     
     71000   2.3396151      1.0392195      0              3.3729855      23.127324    
     71500   2.0490804      1.1746165      0              3.2185742      25.509418    
     72000   2.2782441      1.1627503      0              3.4352988      25.323829    
     72500   2.367012       1.2340185      0              3.5951129      26.696525    
     73000   2.5073331      1.302518       0              3.8035827      27.193262    
     73500   2.2927314      1.2656187      0              3.5526183      27.070918    
     74000   2.5505185      0.98652414     0              3.5306663      22.509786    
     74500   2.3281314      1.1266815      0              3.4489926      24.223791    
     75000   2.2708486      1.3225485      0              3.58772        27.312436    
     75500   2.3170414      1.1567833      0              3.4680322      24.905286    
     76000   2.3121676      1.1565055      0              3.4628927      25.022513    
     76500   2.494442       1.0364486      0              3.5246545      23.357017    
     77000   2.3693007      1.2521814      0              3.6155589      26.501847    
     77500   2.2011486      1.1337004      0              3.3293461      25.117089    
     78000   2.4141061      1.0634426      0              3.4715134      24.144663    
     78500   2.2229468      1.1576567      0              3.3750461      24.563708    
     79000   2.2389525      0.93509941     0              3.1684545      21.660631    
     79500   2.1199195      1.0350996      0              3.1497193      23.266736    
     80000   2.1335215      0.98323262     0              3.1114203      21.70885     
     80500   2.1769908      0.99021337     0              3.1617616      22.358629    
     81000   2.1123407      0.91847214     0              3.025532       21.287705    
     81500   1.9014521      1.1307603      0              3.0274588      24.682512    
     82000   2.0721799      0.92493972     0              2.9919392      21.490899    
     82500   1.9744849      1.0514075      0              3.0209561      23.238147    
     83000   1.9682102      0.93691111     0              2.9002008      21.295324    
     83500   2.0925962      0.89488414     0              2.9822488      21.558904    
     84000   2.1107019      1.0148563      0              3.1202814      22.176707    
     84500   2.0838012      0.92906731     0              3.007659       21.179035    
     85000   2.0846019      0.79753536     0              2.8769257      19.626052    
     85500   1.9446933      0.85505372     0              2.7948853      20.082487    
     86000   1.9823738      0.83065364     0              2.8080715      19.998782    
     86500   1.8235075      0.92326949     0              2.7422182      21.080506    
     87000   1.7560631      0.79924544     0              2.5509184      18.823946    
     87500   1.8475783      0.81810037     0              2.6610597      19.573804    
     88000   1.8551297      0.87094881     0              2.7214407      19.811178    
     88500   1.9406575      0.84103737     0              2.7768432      20.233702    
     89000   1.8112716      0.78875625     0              2.5954996      18.759713    
     89500   1.7702425      0.83067574     0              2.5964927      19.861083    
     90000   1.667526       0.87330797     0              2.5366651      20.643512    
     90500   1.7659746      0.67661243     0              2.4381721      17.41112     
     91000   1.8168098      0.83176202     0              2.6440298      19.639053    
     91500   1.8083934      0.82696512     0              2.6308375      20.431154    
     92000   1.7847204      0.78859756     0              2.5688561      19.229863    
     92500   1.6697614      0.78339869     0              2.4489857      18.75434     
     93000   1.680214       0.78935769     0              2.4653711      18.636712    
     93500   1.6844004      0.63847657     0              2.318666       16.245122    
     94000   1.8229989      0.64743508     0              2.4658765      16.88739     
     94500   1.7938675      0.65226176     0              2.4416446      17.101268    
     95000   1.8039251      0.71369886     0              2.5131141      18.150519    
     95500   1.6611526      0.59757203     0              2.2545718      15.948573    
     96000   1.5992368      0.7659018      0              2.3611405      18.344147    
     96500   1.6836031      0.68941932     0              2.3688134      17.688612    
     97000   1.6913808      0.76700976     0              2.4541621      18.521245    
     97500   1.7927811      0.74437036     0              2.5326695      18.103623    
     98000   1.5395561      0.7142774      0              2.2499846      17.483611    
     98500   1.5495332      0.71187205     0              2.2575315      17.270039    
     99000   1.5752818      0.70460149     0              2.2759451      17.102323    
     99500   1.6213701      0.64494082     0              2.2622575      16.329579    
    100000   1.6826011      0.67140644     0              2.349801       16.827017    
    100500   1.6813483      0.60641195     0              2.2835568      15.853699    
    101000   1.6235554      0.60867026     0              2.2281668      16.17791     
    101500   1.5987657      0.61510995     0              2.2098787      15.962359    
    102000   1.5347336      0.61990064     0              2.1507974      16.166308    
    102500   1.4728489      0.62702451     0              2.0961913      15.699579    
    103000   1.398811       0.60881724     0              2.0041312      15.487869    
    103500   1.3247916      0.64195808     0              1.9634377      16.371226    
    104000   1.4117363      0.64594206     0              2.054149       17.000239    
    104500   1.4837309      0.54432341     0              2.024345       14.496319    
    105000   1.3315123      0.62714451     0              1.955328       16.285909    
    105500   1.5092029      0.51057161     0              2.0160015      14.499242    
    106000   1.4019192      0.52205283     0              1.9204673      14.721603    
    106500   1.3849783      0.52251389     0              1.9040297      14.189163    
    107000   1.3777135      0.50146499     0              1.8757342      14.111991    
    107500   1.3614397      0.47602114     0              1.8340572      13.263766    
    108000   1.2857962      0.54929394     0              1.8318756      14.447341    
    108500   1.2723124      0.53704728     0              1.8061789      14.261215    
    109000   1.2751099      0.44537991     0              1.717302       13.110463    
    109500   1.2652443      0.45635031     0              1.7184315      12.657712    
    110000   1.2186854      0.41128098     0              1.6269196      11.686806    
    110500   1.1341441      0.53790793     0              1.6692167      14.394374    
    111000   1.2405259      0.42960961     0              1.6670342      12.842589    
    111500   1.1956486      0.41912699     0              1.6117864      12.105379    
    112000   1.0944236      0.48374613     0              1.5754337      13.291847    
    112500   1.1354486      0.38114913     0              1.5137591      11.627519    
    113000   1.1951309      0.38381532     0              1.5759584      11.62999     
    113500   1.1506301      0.47103462     0              1.6187881      13.199121    
    114000   1.1818274      0.46050809     0              1.639381       13.356256    
    114500   1.202703       0.46332149     0              1.6630177      12.779142    
    115000   1.0688255      0.42708288     0              1.4932363      12.22626     
    115500   1.0356156      0.42953102     0              1.4625576      12.0585      
    116000   1.0343682      0.40076444     0              1.4325467      12.02759     
    116500   0.95519712     0.3132895      0              1.2660986      9.9778364    
    117000   0.99315707     0.39167286     0              1.382347       11.732685    
    117500   1.0258941      0.39621104     0              1.4195404      11.313712    
    118000   1.0341191      0.36517377     0              1.3967076      11.174394    
    118500   1.0278458      0.33128991     0              1.3565661      10.63216     
    119000   0.91521715     0.38360433     0              1.2965334      11.239805    
    119500   0.89657195     0.36098116     0              1.2553117      10.868444    
    120000   0.92805845     0.39269758     0              1.3184359      11.648759    
    120500   0.98869076     0.31806972     0              1.3042888      10.198536    
    121000   0.97513343     0.37162125     0              1.3443168      11.365823    
    121500   0.99336361     0.30237728     0              1.2932575      9.742955     
    122000   0.95995973     0.31111113     0              1.268671       10.489952    
    122500   0.89601852     0.26506358     0              1.1588421      8.7731629    
    123000   0.84022996     0.2915112      0              1.1296406      9.4519491    
    123500   0.81637381     0.33151093     0              1.1458438      10.240006    
    124000   0.83029291     0.29409617     0              1.1223133      9.3651483    
    124500   0.82983028     0.29912076     0              1.1268765      9.4080442    
    125000   0.87176297     0.27663833     0              1.1462219      9.0622288    
    125500   0.85747327     0.2601085      0              1.1154381      8.9960687    
    126000   0.8401725      0.24542749     0              1.0834996      8.5574954    
    126500   0.84232157     0.25770365     0              1.0979194      8.5264269    
    127000   0.77556459     0.26246322     0              1.0360889      8.9037369    
    127500   0.82358806     0.24310575     0              1.0646348      8.1473743    
    128000   0.72312955     0.26356232     0              0.98488405     8.9848084    
    128500   0.74351873     0.26906863     0              1.0107286      8.3853325    
    129000   0.72664426     0.2447378      0              0.96956544     8.1871841    
    129500   0.71608001     0.23797025     0              0.95226006     8.188178     
    130000   0.70373603     0.2464277      0              0.94840439     8.4327977    
    130500   0.67278366     0.19063698     0              0.86173867     6.7617702    
    131000   0.66070079     0.20005282     0              0.85910186     7.4532327    
    131500   0.62565759     0.2190996      0              0.84319305     7.6662089    
    132000   0.61337815     0.19561185     0              0.80745655     7.1998776    
    132500   0.59668161     0.2121979      0              0.80738781     7.6462677    
    133000   0.57049512     0.21072456     0              0.77979344     7.1538889    
    133500   0.61335551     0.16478195     0              0.77660407     6.6588469    
    134000   0.61246298     0.16517251     0              0.77610434     6.4474575    
    134500   0.59250176     0.15723817     0              0.74825868     6.1469351    
    135000   0.55335527     0.12902254     0              0.68099442     5.4851569    
    135500   0.45231755     0.19643137     0              0.64761813     6.9344057    
    136000   0.5150045      0.13989245     0              0.65360944     5.5479507    
    136500   0.52642021     0.13302619     0              0.65813035     5.564481     
    137000   0.50626956     0.15965345     0              0.66465733     6.3281526    
    137500   0.48570871     0.15346387     0              0.63795831     5.9744631    
    138000   0.47556905     0.15801697     0              0.6323971      5.8836111    
    138500   0.4387329      0.13646533     0              0.5741014      5.6733534    
    139000   0.43957544     0.11885401     0              0.55733051     5.1590262    
    139500   0.41828178     0.12428684     0              0.54152291     5.3194919    
    140000   0.38614739     0.098413136    0              0.48359516     4.718476     
    140500   0.39949786     0.083919202    0              0.48241831     4.1598558    
    141000   0.31325515     0.10324795     0              0.41571996     4.4641965    
    141500   0.35620153     0.075869272    0              0.4311803      3.7710561    
    142000   0.32265271     0.073758703    0              0.39560478     3.6715569    
    142500   0.30753257     0.083208779    0              0.38997252     3.886369     
    143000   0.29645186     0.063296844    0              0.35900758     3.4372804    
    143500   0.28970714     0.065200566    0              0.35418344     3.4109266    
    144000   0.27027603     0.075664373    0              0.34526472     3.6892052    
    144500   0.26907676     0.065877539    0              0.33428161     3.419411     
    145000   0.2472124      0.064504218    0              0.31109859     3.3098858    
    145500   0.24440385     0.056001639    0              0.29979448     2.9535178    
    146000   0.24004882     0.047783266    0              0.28723197     2.8229988    
    146500   0.2075443      0.038992346    0              0.24601779     2.391934     
    147000   0.1965052      0.039748273    0              0.23576221     2.3420671    
    147500   0.15237159     0.040827621    0              0.19281828     2.4058979    
    148000   0.1667343      0.023698754    0              0.19001622     1.6870002    
    148500   0.15093279     0.036625489    0              0.18718094     2.2497369    
    149000   0.12665083     0.02552135     0              0.15185555     1.8268765    
    149500   0.11962561     0.020704113    0              0.14003066     1.5460499    
    150000   0.098542655    0.015599868    0              0.11389617     1.2630096    
Loop time of 1.29215 on 10 procs for 100000 steps with 400 atoms

Performance: 66865227.660 tau/day, 77390.310 timesteps/s, 30.956 Matom-step/s
99.2% CPU use with 10 MPI tasks x 1 OpenMP threads

MPI task timing breakdown:
Section |  min time  |  avg time  |  max time  |%varavg| %total
---------------------------------------------------------------
Pair    | 0.11887    | 0.12179    | 0.12888    |   0.8 |  9.43
Neigh   | 0.12534    | 0.12741    | 0.13472    |   0.7 |  9.86
Comm    | 0.58279    | 0.59703    | 0.60711    |   1.0 | 46.20
Output  | 0.016418   | 0.016525   | 0.01726    |   0.2 |  1.28
Modify  | 0.22448    | 0.23657    | 0.26026    |   2.2 | 18.31
Other   |            | 0.1928     |            |       | 14.92

Nlocal:             40 ave          42 max          38 min
Histogram: 1 0 2 0 0 4 0 2 0 1
Nghost:           43.1 ave          45 max          38 min
Histogram: 1 0 0 0 0 1 0 3 3 2
Neighs:          117.5 ave         122 max         110 min
Histogram: 2 0 0 0 0 1 1 3 1 2

Total # of neighbors = 1175
Ave neighs/atom = 2.9375
Neighbor list builds = 23918
Dangerous builds = 0
Total wall time: 0:00:02
