ITEM: TIMESTEP
100000
ITEM: NUMBER OF ATOMS
400
ITEM: BOX BOUNDS pp pp pp
0.0000000000000000e+00 2.3904572186687872e+01
0.0000000000000000e+00 2.3904572186687872e+01
-5.9761430466719678e-01 5.9761430466719678e-01
ITEM: ATOMS id type xs ys zs
400 1 0.169059 0.295231 0.5
64 1 0.0415996 0.353548 0.5
50 1 0.175661 0.212743 0.5
135 1 0.0244462 0.400472 0.5
160 1 0.127451 0.0906011 0.5
202 1 0.047735 0.009769 0.5
355 1 0.167141 0.252921 0.5
184 1 0.0699531 0.324641 0.5
149 1 0.0813521 0.244376 0.5
319 1 0.103941 0.447358 0.5
153 1 0.134542 0.00285773 0.5
233 1 0.190658 0.475682 0.5
128 1 0.111771 0.309094 0.5
245 1 0.00345075 0.470983 0.5
333 1 0.161335 0.116375 0.5
190 1 0.147033 0.447461 0.5
52 1 0.0560621 0.440494 0.5
208 1 0.199279 0.435633 0.5
342 1 0.0188932 0.09602 0.5
2 1 0.18683 0.378803 0.5
4 1 0.00578907 0.134051 0.5
273 1 0.0567891 0.482356 0.5
75 1 0.122557 0.486712 0.5
124 1 0.0910858 0.0626114 0.5
223 1 0.060637 0.102531 0.5
318 1 0.145253 0.353243 0.5
97 1 0.0455146 0.153381 0.5
251 1 0.155281 0.164853 0.5
399 1 0.115968 0.26835 0.5
77 1 0.0714945 0.198531 0.5
7 1 0.0967744 0.167076 0.5
112 1 0.0371498 0.268076 0.5
366 1 0.0849051 0.381174 0.5
144 1 0.0264265 0.307061 0.5
107 1 0.116347 0.218858 0.5
397 1 0.0905627 0.0153537 0.5
111 1 0.165415 0.056376 0.5
70 1 0.129685 0.396251 0.5
252 1 0.194245 0.086528 0.5
83 1 0.198062 0.340537 0.5
73 1 0.104666 0.815385 0.5
89 1 0.0399223 0.961477 0.5
392 1 0.181246 0.624719 0.5
274 1 0.0710519 0.565235 0.5
98 1 0.0869642 0.965684 0.5
123 1 0.141308 0.542849 0.5
395 1 0.130667 0.615938 0.5
66 1 0.172204 0.771418 0.5
1 1 0.17031 0.579936 0.5
238 1 0.0754575 0.665191 0.5
40 1 0.117073 0.577717 0.5
201 1 0.00794196 0.610001 0.5
268 1 0.0625919 0.747204 0.5
339 1 0.0235037 0.654619 0.5
298 1 0.0231845 0.769047 0.5
210 1 0.158395 0.655824 0.5
247 1 0.0883244 0.510068 0.5
115 1 0.101592 0.881303 0.5
372 1 0.0693757 0.786691 0.5
315 1 0.124456 0.68767 0.5
54 1 0.188178 0.701803 0.5
306 1 0.174045 0.946018 0.5
150 1 0.134655 0.734904 0.5
256 1 0.136809 0.850948 0.5
86 1 0.164943 0.815632 0.5
276 1 0.082727 0.710086 0.5
36 1 0.115881 0.770923 0.5
117 1 0.145006 0.895639 0.5
262 1 0.0208332 0.566077 0.5
13 1 0.0192607 0.727754 0.5
316 1 0.00546691 0.929994 0.5
358 1 0.0213393 0.875319 0.5
291 1 0.133763 0.954647 0.5
368 1 0.166247 0.507375 0.5
166 1 0.188229 0.893755 0.5
80 1 0.052552 0.914098 0.5
386 1 0.0896561 0.619855 0.5
286 1 0.0658005 0.834882 0.5
121 1 0.0215357 0.818396 0.5
216 1 0.0138785 0.523466 0.5
229 1 0.304634 0.376125 0.5
309 1 0.372142 0.198689 0.5
253 1 0.283567 0.467379 0.5
17 1 0.335028 0.405826 0.5
37 1 0.380552 0.474101 0.5
295 1 0.288031 0.419724 0.5
49 1 0.21102 0.297474 0.5
197 1 0.249027 0.0981404 0.5
164 1 0.359398 0.127276 0.5
310 1 0.294574 0.015211 0.5
196 1 0.332901 0.492811 0.5
236 1 0.238181 0.366269 0.5
126 1 0.358044 0.0721472 0.5
132 1 0.325879 0.450866 0.5
270 1 0.389057 0.0334305 0.5
29 1 0.261327 0.0569032 0.5
14 1 0.338518 0.0334348 0.5
394 1 0.248328 0.139271 0.5
165 1 0.365137 0.302253 0.5
143 1 0.316494 0.166845 0.5
378 1 0.294215 0.126446 0.5
92 1 0.328356 0.206286 0.5
212 1 0.214023 0.237567 0.5
162 1 0.286434 0.215689 0.5
174 1 0.396113 0.150992 0.5
31 1 0.243149 0.418621 0.5
170 1 0.3695 0.361433 0.5
226 1 0.21873 0.0536784 0.5
363 1 0.235999 0.196071 0.5
167 1 0.268764 0.33842 0.5
325 1 0.300334 0.08146 0.5
90 1 0.34638 0.268302 0.5
158 1 0.305289 0.24909 0.5
284 1 0.252043 0.281353 0.5
96 1 0.324979 0.313808 0.5
11 1 0.271843 0.175797 0.5
189 1 0.386494 0.257281 0.5
94 1 0.377526 0.404504 0.5
46 1 0.203114 0.168478 0.5
53 1 0.209334 0.127394 0.5
171 1 0.293284 0.541212 0.5
281 1 0.230357 0.627839 0.5
60 1 0.218346 0.668133 0.5
279 1 0.284095 0.873382 0.5
203 1 0.29566 0.955717 0.5
264 1 0.216584 0.806387 0.5
249 1 0.365224 0.658347 0.5
285 1 0.368762 0.573256 0.5
364 1 0.326749 0.569061 0.5
101 1 0.326099 0.987259 0.5
387 1 0.261694 0.503158 0.5
195 1 0.347383 0.749527 0.5
32 1 0.307037 0.663204 0.5
344 1 0.286333 0.60359 0.5
349 1 0.22952 0.548262 0.5
45 1 0.312408 0.708584 0.5
345 1 0.336975 0.626652 0.5
357 1 0.28296 0.827873 0.5
255 1 0.261083 0.652251 0.5
68 1 0.256029 0.766728 0.5
169 1 0.213383 0.510829 0.5
120 1 0.36378 1.00145 0.5
335 1 0.368054 0.947671 0.5
155 1 0.361518 0.532723 0.5
302 1 0.388488 0.699848 0.5
317 1 0.204208 0.854051 0.5
20 1 0.387488 0.76638 0.5
313 1 0.223776 0.729576 0.5
352 1 0.26829 0.913382 0.5
257 1 0.270504 0.70404 0.5
375 1 0.315379 0.913251 0.5
312 1 0.34174 0.808966 0.5
134 1 0.361468 0.894235 0.5
382 1 0.249711 0.851854 0.5
191 1 0.303352 0.746767 0.5
388 1 0.391513 0.807826 0.5
38 1 0.224941 0.98087 0.5
192 1 0.238563 0.940485 0.5
337 1 0.399443 0.603248 0.5
136 1 0.396478 0.916577 0.5
81 1 0.39585 0.974288 0.5
376 1 0.493262 0.490815 0.5
110 1 0.449601 0.0266287 0.5
9 1 0.555681 0.167555 0.5
127 1 0.467933 0.296468 0.5
275 1 0.537033 0.277313 0.5
78 1 0.546023 0.341439 0.5
225 1 0.509078 0.0927891 0.5
129 1 0.484468 0.0518176 0.5
180 1 0.576584 0.0286222 0.5
59 1 0.512083 0.446072 0.5
258 1 0.58477 0.236521 0.5
35 1 0.55401 0.0827086 0.5
147 1 0.538267 0.234703 0.5
95 1 0.501769 0.156815 0.5
84 1 0.556656 0.127293 0.5
277 1 0.455521 0.336335 0.5
200 1 0.532647 0.0389486 0.5
161 1 0.534332 0.410337 0.5
15 1 0.583297 0.282052 0.5
104 1 0.403564 0.328582 0.5
338 1 0.413922 0.445066 0.5
173 1 0.491196 0.233539 0.5
62 1 0.473646 0.424361 0.5
18 1 0.45792 0.467846 0.5
329 1 0.436271 0.0735004 0.5
118 1 0.441539 0.389735 0.5
263 1 0.438875 0.23733 0.5
287 1 0.476173 0.197171 0.5
199 1 0.555608 0.468707 0.5
213 1 0.488766 0.377166 0.5
300 1 0.418798 0.287873 0.5
280 1 0.590032 0.434974 0.5
328 1 0.585509 0.392504 0.5
21 1 0.513499 0.315435 0.5
373 1 0.440791 0.146236 0.5
116 1 0.521493 0.196646 0.5
350 1 0.474407 0.121391 0.5
301 1 0.593414 0.14746 0.5
232 1 0.419095 0.191506 0.5
119 1 0.584762 0.326513 0.5
151 1 0.410209 0.111316 0.5
390 1 0.598548 0.478549 0.5
299 1 0.572496 0.916772 0.5
106 1 0.570727 0.745992 0.5
205 1 0.440574 0.779085 0.5
272 1 0.524427 0.586279 0.5
367 1 0.544751 0.623326 0.5
23 1 0.43797 0.950266 0.5
48 1 0.477925 0.534296 0.5
185 1 0.560693 0.977618 0.5
219 1 0.465653 0.989117 0.5
43 1 0.563466 0.572223 0.5
168 1 0.558602 0.512535 0.5
289 1 0.463722 0.684919 0.5
369 1 0.520005 0.67537 0.5
187 1 0.492609 0.62268 0.5
141 1 0.426275 0.663533 0.5
56 1 0.454612 0.614618 0.5
114 1 0.494703 0.725635 0.5
365 1 0.441597 0.554347 0.5
148 1 0.598089 0.648797 0.5
82 1 0.441719 0.890574 0.5
340 1 0.523487 0.75339 0.5
331 1 0.522968 0.797404 0.5
227 1 0.484363 0.781075 0.5
393 1 0.453701 0.739456 0.5
156 1 0.567286 0.676824 0.5
61 1 0.542354 0.716921 0.5
347 1 0.518736 0.951441 0.5
360 1 0.529696 0.838141 0.5
260 1 0.546648 0.87621 0.5
237 1 0.472804 0.932061 0.5
294 1 0.475574 0.860181 0.5
265 1 0.569183 0.823457 0.5
175 1 0.527039 0.539924 0.5
353 1 0.431622 0.827478 0.5
133 1 0.443905 0.51054 0.5
267 1 0.51263 0.990376 0.5
58 1 0.412605 0.867223 0.5
163 1 0.405263 0.524857 0.5
370 1 0.587963 0.539236 0.5
361 1 0.707977 0.440639 0.5
217 1 0.710377 0.282309 0.5
65 1 0.719036 0.0870854 0.5
22 1 0.640707 0.139561 0.5
288 1 0.608461 0.0679634 0.5
214 1 0.738942 0.152492 0.5
296 1 0.629947 0.42938 0.5
324 1 0.651404 0.0577309 0.5
10 1 0.691535 0.14843 0.5
389 1 0.67847 0.09981 0.5
140 1 0.709779 0.192903 0.5
266 1 0.758827 0.0464616 0.5
152 1 0.665479 0.0126745 0.5
308 1 0.671545 0.30388 0.5
6 1 0.755439 0.197607 0.5
326 1 0.751747 0.343296 0.5
51 1 0.740744 0.237289 0.5
234 1 0.661453 0.181237 0.5
379 1 0.750806 0.397115 0.5
172 1 0.800162 0.302536 0.5
240 1 0.701971 0.0430795 0.5
179 1 0.615993 0.18556 0.5
113 1 0.663883 0.261988 0.5
250 1 0.648079 0.346889 0.5
100 1 0.683862 0.408954 0.5
47 1 0.671398 0.45692 0.5
243 1 0.650608 0.488861 0.5
30 1 0.703268 0.372738 0.5
130 1 0.792478 0.381983 0.5
231 1 0.714902 0.325015 0.5
246 1 0.623102 0.023257 0.5
88 1 0.800755 0.197244 0.5
157 1 0.63187 0.386771 0.5
138 1 0.747596 0.300275 0.5
19 1 0.619268 0.303218 0.5
188 1 0.778271 0.474803 0.5
241 1 0.641478 0.221197 0.5
103 1 0.769755 0.0888759 0.5
269 1 0.779863 0.159614 0.5
248 1 0.772109 0.433128 0.5
230 1 0.725738 0.713913 0.5
290 1 0.794548 0.516864 0.5
206 1 0.640569 0.601582 0.5
25 1 0.73339 0.669541 0.5
224 1 0.770247 0.697018 0.5
105 1 0.641464 0.662799 0.5
283 1 0.784733 0.99704 0.5
377 1 0.643972 0.557231 0.5
57 1 0.640725 0.79534 0.5
218 1 0.645765 0.707329 0.5
244 1 0.721232 0.93953 0.5
93 1 0.6333 0.970809 0.5
109 1 0.722299 0.59161 0.5
348 1 0.786295 0.874217 0.5
261 1 0.680336 0.973996 0.5
209 1 0.678189 0.626491 0.5
385 1 0.646128 0.748658 0.5
323 1 0.678846 0.578105 0.5
26 1 0.664242 0.922321 0.5
182 1 0.685793 0.681266 0.5
305 1 0.755455 0.836368 0.5
222 1 0.74515 0.90033 0.5
228 1 0.700359 0.792526 0.5
293 1 0.707059 0.850588 0.5
41 1 0.611224 0.934888 0.5
28 1 0.654464 0.870579 0.5
16 1 0.784709 0.915824 0.5
278 1 0.622422 0.840069 0.5
181 1 0.740259 0.770054 0.5
207 1 0.680913 0.535225 0.5
5 1 0.701108 0.902916 0.5
137 1 0.666588 0.831063 0.5
186 1 0.688713 0.746996 0.5
85 1 0.783083 0.793166 0.5
371 1 0.724047 0.52832 0.5
198 1 0.605449 0.769344 0.5
292 1 0.762046 0.962585 0.5
398 1 0.76932 0.558818 0.5
211 1 0.777357 0.743801 0.5
314 1 0.608508 0.578621 0.5
131 1 0.617046 0.88758 0.5
67 1 0.603452 0.695186 0.5
33 1 0.726783 0.996212 0.5
311 1 0.797509 0.622594 0.5
391 1 0.9021 0.162894 0.5
142 1 0.828259 0.260672 0.5
374 1 0.853138 0.0915816 0.5
235 1 0.901267 0.243914 0.5
380 1 0.941498 0.243618 0.5
34 1 0.801638 0.0646885 0.5
178 1 0.816829 0.11446 0.5
71 1 0.92607 0.200771 0.5
72 1 0.87085 0.0274813 0.5
330 1 0.976099 0.101332 0.5
108 1 0.901824 0.318916 0.5
39 1 0.81548 0.457602 0.5
91 1 0.876962 0.360984 0.5
259 1 0.853293 0.21502 0.5
99 1 0.91512 0.411713 0.5
122 1 0.95473 0.370468 0.5
125 1 0.833218 0.416778 0.5
220 1 0.979898 0.196057 0.5
176 1 0.827565 0.00350374 0.5
321 1 0.863895 0.292595 0.5
327 1 0.931605 0.00503045 0.5
334 1 0.971839 0.410566 0.5
12 1 0.886854 0.0674615 0.5
42 1 0.975263 0.329207 0.5
183 1 0.83611 0.329781 0.5
341 1 0.917849 0.36059 0.5
146 1 0.948431 0.285099 0.5
297 1 0.959503 0.147755 0.5
63 1 0.939911 0.491597 0.5
204 1 0.877683 0.482137 0.5
322 1 0.950817 0.0600072 0.5
79 1 0.869947 0.434397 0.5
271 1 0.940528 0.450399 0.5
76 1 0.913775 0.114071 0.5
55 1 0.989772 0.0472889 0.5
215 1 0.977623 0.00861489 0.5
282 1 0.996472 0.36705 0.5
320 1 0.993718 0.259075 0.5
193 1 0.831711 0.84992 0.5
384 1 0.947394 0.675958 0.5
69 1 0.983488 0.777786 0.5
332 1 0.802784 0.956523 0.5
145 1 0.812904 0.572347 0.5
396 1 0.881385 0.738502 0.5
359 1 0.841105 0.605327 0.5
194 1 0.815846 0.667633 0.5
303 1 0.946372 0.893639 0.5
177 1 0.906482 0.645033 0.5
221 1 0.895399 0.84517 0.5
351 1 0.956434 0.604281 0.5
8 1 0.900624 0.604552 0.5
242 1 0.869043 0.660433 0.5
24 1 0.854141 0.558967 0.5
87 1 0.958552 0.813091 0.5
3 1 0.914058 0.531894 0.5
307 1 0.97618 0.727163 0.5
44 1 0.827165 0.898432 0.5
139 1 0.875477 0.780894 0.5
74 1 0.961214 0.528782 0.5
239 1 0.93106 0.939912 0.5
254 1 0.904492 0.687432 0.5
381 1 0.823214 0.76037 0.5
346 1 0.937622 0.567172 0.5
159 1 0.841738 0.50797 0.5
27 1 0.840561 0.805583 0.5
383 1 0.884598 0.959891 0.5
354 1 0.815781 0.717141 0.5
356 1 0.869404 0.878625 0.5
343 1 0.983521 0.649065 0.5
336 1 0.941551 0.757781 0.5
362 1 0.96392 0.856311 0.5
304 1 0.846487 0.936425 0.5
154 1 0.965274 0.964374 0.5
102 1 0.913769 0.803434 0.5
