ITEM: TIMESTEP
100000
ITEM: NUMBER OF ATOMS
2048
ITEM: BOX BOUNDS pp pp pp
0.0000000000000000e+00 1.1351867295763070e+01
0.0000000000000000e+00 1.1351867295763070e+01
0.0000000000000000e+00 1.1351867295763070e+01
ITEM: ATOMS id type xs ys zs
8 1 0.126874 0.0648047 0.0611442
49 1 0.498018 0.124174 0.00505382
16 1 0.368717 0.0647206 0.0592448
20 1 0.501036 0.0680129 0.0655293
228 1 0.998641 0.434198 0.191635
24 1 0.629305 0.0640666 0.0589018
143 1 0.440013 0.00085575 0.186859
4 1 0.990987 0.0638827 0.0566731
53 1 0.623756 0.12603 -0.00125379
39 1 0.184288 0.127832 0.0634733
18 1 0.560905 0.0678111 0.00488108
12 1 0.248954 0.0615489 0.0635448
47 1 0.430455 0.124728 0.0635568
51 1 0.56084 0.126996 0.0665904
55 1 0.686494 0.12616 0.0576849
28 1 0.752598 0.0612047 0.0634732
59 1 0.813067 0.127639 0.063684
32 1 0.87472 0.0587155 0.0617981
77 1 0.375223 0.254646 0.000438908
35 1 0.0584574 0.123701 0.0637392
93 1 0.870932 0.251252 0.00236065
43 1 0.311805 0.126218 0.0656398
48 1 0.373981 0.191943 0.0627668
50 1 0.555951 0.190452 0.00608906
149 1 0.626114 0.00314904 0.119519
1165 1 0.366784 0.499058 0.111742
1043 1 0.557536 0.498876 0.0591802
145 1 0.49679 -0.000732154 0.122196
63 1 0.925855 0.125389 0.0602212
36 1 0.989845 0.183687 0.063343
11 1 0.308297 -0.000515625 0.059502
40 1 0.124225 0.187395 0.0673563
44 1 0.250483 0.186043 0.0601743
75 1 0.310044 0.250225 0.0624232
1035 1 0.307754 0.493846 0.0518583
56 1 0.62465 0.186299 0.063009
1171 1 0.56909 0.499225 0.179212
60 1 0.748195 0.183671 0.0621842
15 1 0.431847 0.000553144 0.0596581
64 1 0.87478 0.189234 0.0651872
243 1 0.564546 0.377485 0.187175
95 1 0.934385 0.248947 0.0636072
67 1 0.0582836 0.248923 0.0575614
71 1 0.186755 0.242651 0.0702009
80 1 0.374559 0.318719 0.0616747
79 1 0.436917 0.247229 0.0593564
83 1 0.55599 0.247254 0.0709834
46 1 0.433337 0.183825 0.00136792
87 1 0.683094 0.249511 0.0663256
1163 1 0.311229 0.493672 0.182511
92 1 0.748884 0.31737 0.0634662
91 1 0.809824 0.251044 0.062039
96 1 0.875648 0.313005 0.0584586
240 1 0.368534 0.43654 0.190114
68 1 0.994542 0.314407 0.0615964
236 1 0.245586 0.438883 0.188056
99 1 0.0595816 0.378938 0.0634508
72 1 0.117328 0.317 0.0627141
103 1 0.188385 0.37357 0.06093
232 1 0.125599 0.439458 0.183968
76 1 0.248874 0.308558 0.0621889
1169 1 0.496473 0.493684 0.123273
84 1 0.49867 0.309759 0.0706915
1027 1 0.0568093 0.491925 0.0562141
88 1 0.625348 0.314035 0.0654199
235 1 0.307447 0.374903 0.192352
123 1 0.816875 0.382185 0.0576077
45 1 0.372673 0.124343 -0.00510848
255 1 0.93379 0.374483 0.188671
107 1 0.309718 0.370398 0.0636771
3 1 0.0652552 -0.000543344 0.0580467
111 1 0.440485 0.375338 0.0589243
81 1 0.498117 0.254667 0.00300145
115 1 0.561063 0.372709 0.0657843
119 1 0.68597 0.375929 0.0653787
224 1 0.874971 0.311344 0.187267
124 1 0.750794 0.437725 0.0650981
128 1 0.875879 0.443273 0.0631559
127 1 0.930653 0.381285 0.0629038
100 1 0.992364 0.434113 0.0648353
200 1 0.126801 0.319567 0.184165
104 1 0.119815 0.436417 0.0568836
108 1 0.243119 0.434553 0.0615718
215 1 0.686855 0.246251 0.185754
112 1 0.37503 0.429972 0.0611463
256 1 0.87191 0.436998 0.186507
116 1 0.505036 0.435582 0.063139
220 1 0.745575 0.30838 0.195087
69 1 0.121391 0.246774 0.000573915
120 1 0.631722 0.439499 0.059281
227 1 0.0639073 0.37651 0.186342
247 1 0.693393 0.374821 0.190265
130 1 0.0607472 0.0595829 0.118428
248 1 0.628155 0.434617 0.18522
216 1 0.627163 0.314749 0.186831
142 1 0.431879 0.0606866 0.12325
146 1 0.559064 0.0605186 0.124109
150 1 0.688952 0.0593691 0.118993
244 1 0.502585 0.44015 0.19036
239 1 0.432677 0.37967 0.185958
134 1 0.183869 0.0647763 0.12126
138 1 0.310133 0.0594164 0.126209
177 1 0.49665 0.118467 0.129277
181 1 0.623676 0.123543 0.123112
154 1 0.813729 0.0621599 0.124185
158 1 0.937112 0.0571202 0.120642
165 1 0.11747 0.125375 0.124997
169 1 0.249115 0.123017 0.118677
173 1 0.373269 0.120057 0.125922
174 1 0.432439 0.182466 0.126846
52 1 0.494173 0.186671 0.0677912
178 1 0.555841 0.181306 0.131015
185 1 0.750964 0.127297 0.127276
186 1 0.812536 0.193408 0.120058
189 1 0.873002 0.121553 0.130428
161 1 1.00268 0.128868 0.128818
162 1 0.0578125 0.189615 0.12252
166 1 0.185262 0.181715 0.128295
170 1 0.311687 0.18794 0.125223
205 1 0.376479 0.254382 0.12505
182 1 0.68417 0.180677 0.126839
217 1 0.753258 0.255858 0.123442
221 1 0.878746 0.259764 0.123018
190 1 0.930073 0.184374 0.127333
193 1 0.994954 0.242944 0.124602
194 1 0.0587243 0.308611 0.122961
197 1 0.125168 0.253941 0.122086
201 1 0.246904 0.248872 0.124461
209 1 0.494584 0.250308 0.130736
213 1 0.622529 0.252582 0.126872
218 1 0.814548 0.318681 0.119046
229 1 0.122944 0.377514 0.122687
198 1 0.186736 0.313286 0.122092
233 1 0.247215 0.37252 0.123046
202 1 0.303614 0.309476 0.128183
237 1 0.369677 0.373071 0.126551
206 1 0.433142 0.314132 0.124242
210 1 0.563532 0.316427 0.127559
214 1 0.6878 0.311343 0.127166
253 1 0.875319 0.380692 0.126828
222 1 0.934172 0.318856 0.122557
225 1 1.00154 0.377432 0.125767
226 1 0.056408 0.442665 0.129547
230 1 0.190354 0.435522 0.123562
234 1 0.306469 0.435151 0.123286
238 1 0.429944 0.443341 0.128929
241 1 0.495629 0.373363 0.122321
245 1 0.624508 0.378006 0.124928
249 1 0.746108 0.376136 0.126987
208 1 0.373804 0.311212 0.184008
251 1 0.811732 0.374989 0.183134
223 1 0.937998 0.240851 0.191996
242 1 0.566076 0.438403 0.122314
231 1 0.189339 0.374731 0.188617
246 1 0.690595 0.439274 0.12272
250 1 0.81214 0.440875 0.125488
254 1 0.938369 0.434271 0.130297
85 1 0.620246 0.247241 -0.000916831
252 1 0.752207 0.441337 0.186614
140 1 0.242871 0.0693931 0.180976
137 1 0.247936 0.00501121 0.122827
144 1 0.373665 0.0640754 0.18917
148 1 0.503161 0.0579554 0.18638
152 1 0.623339 0.0618765 0.184339
33 1 0.992375 0.126073 -0.00184913
219 1 0.812968 0.253429 0.183352
132 1 0.997218 0.0582478 0.187285
163 1 0.0612381 0.12622 0.190775
136 1 0.122093 0.0605977 0.180632
171 1 0.314369 0.123743 0.187297
179 1 0.558275 0.122144 0.188034
156 1 0.748108 0.0643613 0.188141
187 1 0.812068 0.119914 0.192178
160 1 0.872286 0.0623103 0.185358
191 1 0.93743 0.118881 0.184468
167 1 0.18176 0.120717 0.19195
1155 1 0.0672038 0.498664 0.194038
176 1 0.372467 0.18846 0.190498
175 1 0.432367 0.126255 0.188192
180 1 0.495028 0.186413 0.186573
183 1 0.686381 0.120755 0.181423
192 1 0.871307 0.187101 0.191453
164 1 0.00426307 0.191512 0.189039
195 1 0.0694567 0.250523 0.180381
168 1 0.123636 0.186261 0.188309
199 1 0.179057 0.247714 0.185896
207 1 0.433406 0.252502 0.19168
184 1 0.623249 0.189456 0.182277
188 1 0.75297 0.190481 0.185707
196 1 0.00286618 0.303958 0.186743
204 1 0.246245 0.307258 0.18978
203 1 0.315848 0.248335 0.185154
212 1 0.500882 0.324018 0.188869
211 1 0.557684 0.244183 0.183934
65 1 0.995365 0.253123 0.0019419
22 1 0.694565 0.0601638 0.00097813
1167 1 0.437025 0.503542 0.19158
117 1 0.623835 0.374105 0.00419048
131 1 0.0590102 0.00249606 0.187371
1183 1 0.935338 0.496462 0.190005
129 1 -0.00499091 0.000648053 0.118627
141 1 0.37174 -0.00160133 0.127249
23 1 0.692749 -0.00208941 0.0643199
139 1 0.308949 3.37046e-05 0.186828
1161 1 0.249327 0.497585 0.124797
66 1 0.0595461 0.310914 0.000633643
172 1 0.248528 0.188466 0.187799
27 1 0.812978 0.00550395 0.0676119
135 1 0.193722 0.000815042 0.190913
1157 1 0.126309 0.497493 0.116065
7 1 0.185829 0.00618005 0.0588143
155 1 0.812019 0.00476528 0.189781
78 1 0.439119 0.307726 -0.000461195
14 1 0.433958 0.0626647 -0.000201394
106 1 0.317463 0.427498 0.00301983
82 1 0.56539 0.308244 0.00565035
57 1 0.748577 0.125051 0.000549657
17 1 0.496726 0.000951547 -0.0003502
10 1 0.310535 0.0667295 -0.000127994
70 1 0.18692 0.304385 0.00378525
90 1 0.808091 0.315364 0.00585324
126 1 0.934342 0.438093 -0.00193983
114 1 0.569197 0.435766 0.00336505
2 1 0.0658178 0.0644993 -0.00037109
101 1 0.125617 0.370029 1.05216e-06
34 1 0.0616278 0.184699 -0.00134903
391 1 0.378332 -0.000380326 0.371828
258 1 0.0643479 0.0617041 0.246472
1411 1 0.128012 0.501507 0.377907
441 1 0.505663 0.377138 0.374246
266 1 0.309495 0.0609511 0.249107
270 1 0.44325 0.0621788 0.246586
448 1 0.936666 0.440718 0.371685
282 1 0.816554 0.0604414 0.256643
439 1 0.372536 0.372244 0.371883
289 1 0.995414 0.12195 0.24899
293 1 0.12555 0.122173 0.251182
262 1 0.194941 0.0593108 0.249835
297 1 0.247497 0.131163 0.247076
301 1 0.374788 0.123299 0.253406
305 1 0.499899 0.123874 0.249711
274 1 0.565967 0.0592694 0.246829
278 1 0.686216 0.0598161 0.248352
313 1 0.751367 0.121473 0.253432
317 1 0.87027 0.123106 0.255131
286 1 0.933583 0.0618205 0.245834
290 1 0.0672632 0.186477 0.253188
298 1 0.312176 0.192612 0.2488
309 1 0.62451 0.1215 0.238414
310 1 0.693979 0.178657 0.246509
314 1 0.814468 0.188237 0.257759
318 1 0.935404 0.184547 0.256042
294 1 0.177615 0.18627 0.257438
329 1 0.250237 0.249767 0.249177
302 1 0.436374 0.18987 0.250896
306 1 0.559963 0.18734 0.244135
349 1 0.874242 0.250834 0.250832
321 1 0.00599781 0.249955 0.246638
325 1 0.120135 0.249777 0.250103
326 1 0.188283 0.313367 0.251634
330 1 0.310601 0.309568 0.245808
333 1 0.373226 0.253668 0.2487
334 1 0.43336 0.312647 0.244339
337 1 0.496356 0.244531 0.25181
341 1 0.619222 0.248338 0.242224
345 1 0.74803 0.242462 0.251543
350 1 0.942608 0.314317 0.24899
353 1 0.998386 0.375223 0.244448
322 1 0.0686203 0.319415 0.255275
361 1 0.245393 0.377083 0.24954
369 1 0.496439 0.377324 0.250933
338 1 0.563081 0.313159 0.245391
373 1 0.62392 0.377608 0.248312
342 1 0.68025 0.309284 0.248965
377 1 0.746687 0.375846 0.252061
346 1 0.813847 0.313148 0.251074
357 1 0.131982 0.37631 0.248094
365 1 0.370821 0.375938 0.25554
366 1 0.43662 0.438139 0.246138
370 1 0.564929 0.433144 0.24813
378 1 0.813013 0.432494 0.247588
381 1 0.875123 0.372691 0.250426
354 1 0.0660556 0.432425 0.252626
358 1 0.187132 0.440921 0.248963
362 1 0.306872 0.43919 0.249223
271 1 0.441279 -0.00394357 0.314353
418 1 0.0629568 0.313075 0.37369
374 1 0.687502 0.438424 0.252138
432 1 0.935588 0.316397 0.366653
437 1 0.251825 0.364882 0.377017
382 1 0.936826 0.437991 0.248871
447 1 0.873797 0.381424 0.370832
272 1 0.384876 0.0621441 0.31214
435 1 0.131091 0.375744 0.380261
276 1 0.498206 0.0613255 0.308034
433 1 0.00414306 0.373999 0.371186
430 1 0.813217 0.313579 0.371939
284 1 0.751715 0.0597548 0.310564
446 1 0.81626 0.44291 0.378607
288 1 0.880516 0.0614056 0.312773
260 1 0.00394063 0.0657512 0.310639
291 1 0.0586862 0.128418 0.313904
264 1 0.128182 0.0612206 0.310977
268 1 0.251277 0.0642067 0.314314
280 1 0.623569 0.0622996 0.30877
311 1 0.681163 0.121574 0.317365
319 1 0.938137 0.117855 0.309329
292 1 1.00303 0.187949 0.309107
295 1 0.187373 0.121695 0.315322
299 1 0.314481 0.124154 0.311113
304 1 0.374969 0.191484 0.310014
303 1 0.439402 0.129404 0.309344
307 1 0.561589 0.120438 0.309962
312 1 0.622293 0.182945 0.306952
315 1 0.807328 0.124301 0.315778
320 1 0.87421 0.187983 0.315011
323 1 0.0588481 0.251056 0.307748
296 1 0.125117 0.18975 0.324358
300 1 0.244009 0.186987 0.309018
335 1 0.439175 0.252442 0.309521
308 1 0.500222 0.187882 0.31319
343 1 0.688016 0.249293 0.312097
316 1 0.751917 0.184736 0.312109
347 1 0.815446 0.253073 0.312435
327 1 0.189312 0.2474 0.31382
332 1 0.244328 0.309318 0.313447
331 1 0.312294 0.25098 0.308525
336 1 0.373797 0.310621 0.310026
339 1 0.561959 0.243081 0.312127
344 1 0.620874 0.307244 0.308703
348 1 0.746899 0.310902 0.305252
352 1 0.874798 0.31325 0.308157
351 1 0.936963 0.249556 0.307158
324 1 0.99954 0.318471 0.307011
355 1 0.0659847 0.375635 0.314479
328 1 0.128326 0.315108 0.315927
363 1 0.302956 0.373525 0.308551
340 1 0.503594 0.315886 0.312748
371 1 0.567255 0.372328 0.307226
375 1 0.683098 0.369876 0.31009
379 1 0.810872 0.370509 0.307099
383 1 0.93656 0.38108 0.311445
356 1 0.00197812 0.435378 0.304597
360 1 0.125378 0.437042 0.316316
359 1 0.189948 0.377501 0.311887
364 1 0.248587 0.439136 0.309761
368 1 0.372165 0.439389 0.314733
367 1 0.436912 0.378513 0.307231
376 1 0.625628 0.432374 0.313873
384 1 0.873164 0.446859 0.308807
434 1 0.0694531 0.433013 0.377411
438 1 0.311176 0.43924 0.379368
372 1 0.498045 0.437214 0.313803
442 1 0.565517 0.437597 0.369268
380 1 0.752874 0.4401 0.319792
445 1 0.745324 0.375933 0.366439
440 1 0.430872 0.440855 0.376344
429 1 0.749136 0.251419 0.370036
443 1 0.627769 0.3718 0.375298
436 1 0.193855 0.438118 0.376449
394 1 0.562438 0.0558605 0.3772
444 1 0.684352 0.436695 0.370579
398 1 0.81208 0.0559953 0.373946
400 1 0.94347 0.0653313 0.379225
386 1 0.0631723 0.0655071 0.372868
388 1 0.192766 0.0598791 0.374293
390 1 0.315244 0.0612181 0.37062
407 1 0.376309 0.119759 0.373565
392 1 0.437273 0.0607644 0.37593
396 1 0.687006 0.0537408 0.374525
413 1 0.749127 0.122002 0.375213
415 1 0.871202 0.118975 0.3747
401 1 0.998989 0.129455 0.374703
403 1 0.127583 0.121414 0.376519
404 1 0.191095 0.191815 0.379317
405 1 0.252242 0.131551 0.372587
409 1 0.496808 0.121371 0.369275
411 1 0.620556 0.114373 0.371146
412 1 0.686884 0.18614 0.369494
414 1 0.812335 0.190504 0.373492
416 1 0.937586 0.189974 0.379709
417 1 0.00455127 0.24845 0.36862
402 1 0.0606926 0.181509 0.381601
421 1 0.253865 0.250873 0.375162
406 1 0.312372 0.192423 0.376401
408 1 0.432631 0.183397 0.372962
425 1 0.495086 0.248533 0.373332
410 1 0.563776 0.179041 0.371934
427 1 0.623788 0.241198 0.371641
431 1 0.883647 0.251783 0.377392
419 1 0.124934 0.249405 0.379596
420 1 0.188342 0.303884 0.37918
422 1 0.315699 0.306659 0.371327
423 1 0.377932 0.245927 0.375421
424 1 0.442643 0.319066 0.375701
426 1 0.564169 0.313292 0.373001
428 1 0.68332 0.310425 0.373381
267 1 0.313245 -0.00390307 0.314256
389 1 0.252237 -0.00414842 0.371286
1301 1 0.62266 0.497179 0.249542
385 1 0.00226298 0.00569736 0.377451
1303 1 0.683075 0.50126 0.310136
257 1 1.00623 0.0011738 0.251034
269 1 0.376405 0.00571856 0.248366
261 1 0.130561 0.00398975 0.247981
1297 1 0.499723 0.497596 0.248613
259 1 0.0662473 0.00613263 0.316977
1283 1 0.0627644 0.496658 0.314514
399 1 0.877257 -0.00195819 0.373705
1285 1 0.124717 0.496882 0.252377
1419 1 0.623192 0.497371 0.370344
1409 1 1.008 0.499662 0.376268
395 1 0.622143 -0.00484257 0.375969
387 1 0.126741 0.00677433 0.383294
277 1 0.620617 -0.00120917 0.253669
1417 1 0.497392 0.491694 0.375451
263 1 0.190285 0.00257886 0.315155
452 1 0.131248 0.0661413 0.440151
1483 1 0.690712 0.495871 0.435627
1545 1 0.248294 0.503156 0.501905
1557 1 0.626198 0.496284 0.488762
517 1 0.120625 -0.00176901 0.499241
462 1 0.750381 0.0633971 0.43125
640 1 0.871759 0.439486 0.551877
464 1 0.870649 0.0583359 0.43497
450 1 0.000240937 0.065816 0.440619
465 1 0.0659508 0.120429 0.440125
467 1 0.195967 0.126528 0.431763
454 1 0.260294 0.0672293 0.434911
456 1 0.381981 0.0659792 0.44103
458 1 0.501601 0.0587977 0.437628
473 1 0.566844 0.117478 0.437732
460 1 0.626537 0.0570582 0.437153
477 1 0.811533 0.123219 0.437427
479 1 0.938925 0.124972 0.440803
466 1 0.00165527 0.183559 0.444197
470 1 0.250399 0.191456 0.435579
469 1 0.316322 0.128546 0.435747
472 1 0.375577 0.187932 0.436736
471 1 0.441733 0.121399 0.435663
475 1 0.683723 0.118252 0.437299
478 1 0.746473 0.184744 0.432278
480 1 0.876303 0.184477 0.435469
481 1 0.0600174 0.244235 0.431543
468 1 0.124936 0.186522 0.44158
483 1 0.188805 0.248395 0.446341
485 1 0.309345 0.25183 0.439294
487 1 0.439784 0.245644 0.433193
474 1 0.504092 0.184649 0.432274
489 1 0.55986 0.246822 0.440816
476 1 0.631603 0.181968 0.433279
491 1 0.688408 0.248065 0.43267
493 1 0.814637 0.255707 0.439778
482 1 0.00166301 0.311507 0.434403
488 1 0.378229 0.310373 0.434343
490 1 0.506453 0.309683 0.433006
492 1 0.626105 0.305566 0.435095
494 1 0.747881 0.312734 0.432015
496 1 0.874249 0.319053 0.433213
495 1 0.938636 0.247287 0.441477
484 1 0.12368 0.309743 0.444112
486 1 0.24662 0.306522 0.443802
501 1 0.314299 0.365998 0.440819
509 1 0.814836 0.375862 0.431337
498 1 0.000892715 0.437423 0.432171
497 1 0.0689248 0.374072 0.433146
499 1 0.189271 0.37345 0.442386
504 1 0.374183 0.432177 0.438597
503 1 0.437093 0.374981 0.435851
505 1 0.562876 0.374925 0.436594
507 1 0.68434 0.371977 0.438206
510 1 0.753944 0.436274 0.429054
512 1 0.877378 0.442287 0.434183
511 1 0.939179 0.376447 0.431709
500 1 0.134152 0.434146 0.444508
502 1 0.249401 0.441299 0.442178
515 1 0.0607145 0.000919109 0.563524
506 1 0.493768 0.432413 0.443525
1555 1 0.568773 0.500221 0.553576
508 1 0.625785 0.434893 0.434865
599 1 0.689992 0.248315 0.56086
607 1 0.937219 0.253192 0.563477
604 1 0.746537 0.312026 0.560536
628 1 0.501297 0.434624 0.558724
608 1 0.873715 0.311426 0.560662
631 1 0.689819 0.37473 0.565008
600 1 0.622369 0.307186 0.563686
635 1 0.811249 0.374451 0.562606
538 1 0.817924 0.063703 0.504518
612 1 1.0006 0.441602 0.56172
514 1 0.0633677 0.0593853 0.503602
549 1 0.126119 0.12564 0.506451
518 1 0.190449 0.0679845 0.501686
522 1 0.31304 0.0655762 0.497159
526 1 0.440088 0.0575413 0.50389
530 1 0.56563 0.0622434 0.499297
534 1 0.682258 0.0614257 0.50154
573 1 0.875697 0.12946 0.501658
542 1 0.932108 0.0648674 0.502748
546 1 0.0641004 0.186476 0.497931
550 1 0.190875 0.187224 0.503202
553 1 0.254084 0.127851 0.498367
554 1 0.310216 0.188681 0.501851
557 1 0.37423 0.125587 0.499063
558 1 0.438518 0.183094 0.496176
561 1 0.502583 0.124316 0.492083
565 1 0.624045 0.122989 0.503579
566 1 0.690125 0.190152 0.499577
569 1 0.752388 0.120221 0.503325
570 1 0.809448 0.187357 0.497405
574 1 0.939763 0.181728 0.498226
545 1 0.00563658 0.121755 0.504911
581 1 0.126986 0.249085 0.501134
585 1 0.253538 0.248489 0.504448
589 1 0.373238 0.24555 0.498003
562 1 0.567915 0.182623 0.499294
601 1 0.74757 0.250525 0.496898
577 1 0.00205235 0.252028 0.499705
578 1 0.0652121 0.311444 0.502303
582 1 0.188994 0.310063 0.506521
586 1 0.310609 0.309255 0.505117
593 1 0.506041 0.243127 0.498998
594 1 0.562784 0.310198 0.503212
597 1 0.631785 0.24873 0.498884
598 1 0.690299 0.313026 0.494873
602 1 0.816124 0.316244 0.500162
605 1 0.880264 0.244134 0.498438
606 1 0.940251 0.314312 0.492137
609 1 0.0040471 0.369446 0.505648
617 1 0.249531 0.373526 0.50398
590 1 0.438468 0.300382 0.499592
625 1 0.489345 0.373172 0.502928
629 1 0.622213 0.371662 0.500253
613 1 0.129971 0.370591 0.502768
618 1 0.30922 0.433705 0.501914
621 1 0.374796 0.374748 0.501968
622 1 0.429635 0.43434 0.501302
626 1 0.558902 0.433797 0.496336
630 1 0.684627 0.429679 0.500181
633 1 0.750406 0.368578 0.497858
634 1 0.812426 0.441253 0.492688
637 1 0.881143 0.379546 0.492919
639 1 0.928188 0.37462 0.561605
610 1 0.061663 0.434904 0.493394
627 1 0.561379 0.368824 0.554668
614 1 0.193737 0.433287 0.507932
615 1 0.187031 0.373644 0.567484
619 1 0.318011 0.373811 0.566578
611 1 0.0709014 0.380092 0.562879
636 1 0.750919 0.437689 0.56214
638 1 0.942993 0.434859 0.498443
620 1 0.252448 0.438156 0.567446
524 1 0.251716 0.0657917 0.561565
616 1 0.132598 0.439277 0.565736
528 1 0.375195 0.0594615 0.554484
624 1 0.370801 0.441197 0.568662
632 1 0.623644 0.433128 0.559462
544 1 0.872546 0.0653116 0.570968
623 1 0.433088 0.374182 0.564193
516 1 1.00106 0.060765 0.571969
547 1 0.0630533 0.117922 0.565868
520 1 0.132928 0.0656182 0.565334
551 1 0.188564 0.126426 0.56493
532 1 0.501799 0.058864 0.56404
536 1 0.629408 0.0595434 0.563458
540 1 0.748553 0.0590245 0.560646
571 1 0.811743 0.134201 0.565195
548 1 1.00212 0.184977 0.560624
552 1 0.126702 0.189363 0.564644
556 1 0.25198 0.186268 0.565065
555 1 0.316135 0.118408 0.562698
560 1 0.372227 0.185857 0.55681
559 1 0.433211 0.123703 0.561785
563 1 0.561905 0.12113 0.563327
567 1 0.684214 0.129385 0.560559
572 1 0.751846 0.188265 0.565583
576 1 0.879677 0.186884 0.563417
575 1 0.934334 0.127461 0.567832
579 1 0.0636481 0.247804 0.570886
583 1 0.190077 0.247404 0.567718
587 1 0.310839 0.247137 0.565512
591 1 0.438841 0.237458 0.556205
564 1 0.505983 0.179434 0.555654
568 1 0.622534 0.188497 0.566725
603 1 0.804298 0.251262 0.556623
580 1 -0.000504534 0.307653 0.572712
584 1 0.123685 0.313163 0.562201
588 1 0.254882 0.310207 0.569942
592 1 0.377997 0.304486 0.562629
596 1 0.496238 0.30799 0.56116
595 1 0.563163 0.247349 0.565557
1479 1 0.43033 0.496689 0.436673
1551 1 0.437172 0.499041 0.571422
1541 1 0.131258 0.498005 0.499582
1553 1 0.498121 0.496712 0.496283
463 1 0.94153 0.00170434 0.437842
1561 1 0.751653 0.502074 0.495647
543 1 0.932309 0.00619427 0.567127
1481 1 0.558678 0.49293 0.435578
449 1 0.0642011 0.00640582 0.436459
1549 1 0.373241 0.493422 0.499649
519 1 0.190194 0.0036254 0.562196
453 1 0.319505 0.00520017 0.439182
523 1 0.310454 0.00712101 0.555888
521 1 0.25128 0.00769665 0.492172
451 1 0.18679 0.00343649 0.441309
1559 1 0.684652 0.493535 0.555534
1679 1 0.441193 0.502108 0.689522
642 1 0.0620764 0.0631597 0.63279
667 1 0.809339 0.00260166 0.687311
783 1 0.874876 0.00634595 0.755873
821 1 0.242775 0.377439 0.749936
654 1 0.434095 0.0623555 0.618709
669 1 0.87932 0.00564182 0.631474
666 1 0.809029 0.0670847 0.631659
817 1 1.00039 0.378774 0.753271
673 1 1.00033 0.126242 0.625088
646 1 0.189907 0.06156 0.626349
650 1 0.315253 0.0645594 0.627447
685 1 0.375009 0.126377 0.627147
658 1 0.569063 0.0587054 0.626492
662 1 0.689092 0.0603877 0.624009
697 1 0.749495 0.13131 0.628276
670 1 0.9372 0.0649281 0.627135
674 1 0.0691108 0.186058 0.626859
677 1 0.12838 0.124701 0.628386
678 1 0.18644 0.187679 0.627322
681 1 0.245743 0.126951 0.628889
689 1 0.497684 0.121751 0.624571
690 1 0.56296 0.185161 0.627181
693 1 0.625777 0.122612 0.625852
698 1 0.812251 0.190858 0.628182
701 1 0.871543 0.129673 0.626283
713 1 0.250797 0.243429 0.622943
682 1 0.314797 0.187185 0.624717
686 1 0.43858 0.186833 0.621869
721 1 0.496969 0.247947 0.624585
694 1 0.686078 0.188785 0.623483
702 1 0.936232 0.190098 0.62304
706 1 0.0664715 0.311891 0.629559
709 1 0.126757 0.247558 0.62633
710 1 0.188735 0.311104 0.629905
717 1 0.373939 0.251371 0.631389
718 1 0.441615 0.312309 0.626121
722 1 0.562247 0.312553 0.624339
725 1 0.625671 0.251225 0.626024
729 1 0.749643 0.246057 0.626353
733 1 0.874561 0.252199 0.620936
705 1 0.999646 0.243156 0.63134
737 1 0.997261 0.375624 0.621695
741 1 0.127844 0.373924 0.627206
745 1 0.253351 0.372043 0.623557
714 1 0.315661 0.313233 0.625672
749 1 0.379496 0.376252 0.629716
753 1 0.500913 0.372581 0.620134
757 1 0.624297 0.372624 0.617117
726 1 0.689008 0.310414 0.62296
761 1 0.755309 0.373215 0.629209
730 1 0.80956 0.309991 0.621083
765 1 0.873272 0.370784 0.621475
734 1 0.936685 0.306247 0.623966
742 1 0.185288 0.436084 0.630793
750 1 0.443137 0.43682 0.627105
754 1 0.565163 0.441009 0.622551
758 1 0.687663 0.435439 0.625486
814 1 0.815661 0.312683 0.752572
738 1 0.0648403 0.4411 0.624121
1805 1 0.749501 0.498452 0.744836
746 1 0.313323 0.43377 0.633063
830 1 0.81264 0.436189 0.748224
829 1 0.750614 0.377416 0.746629
671 1 0.93619 0.00190057 0.691135
762 1 0.818254 0.435459 0.621874
766 1 0.930818 0.440853 0.622152
818 1 0.0661009 0.433214 0.749368
812 1 0.696123 0.312651 0.747221
810 1 0.565268 0.307026 0.755926
831 1 0.875409 0.375996 0.751467
672 1 0.867214 0.0682373 0.690225
828 1 0.687664 0.440508 0.749638
644 1 -0.00240129 0.0631475 0.687043
675 1 0.0648292 0.124408 0.694149
648 1 0.128183 0.0634842 0.687964
652 1 0.246691 0.0646163 0.692457
656 1 0.372801 0.0620098 0.691757
660 1 0.503537 0.0603752 0.689458
691 1 0.570351 0.12153 0.685745
664 1 0.628629 0.0595937 0.68939
695 1 0.68721 0.12559 0.687495
668 1 0.746064 0.0614625 0.688959
699 1 0.80844 0.128204 0.690778
680 1 0.128294 0.189001 0.690046
679 1 0.188867 0.130476 0.691574
684 1 0.256542 0.188633 0.691543
683 1 0.305711 0.124885 0.683113
687 1 0.436921 0.121734 0.687427
696 1 0.622888 0.186824 0.685325
703 1 0.933881 0.126077 0.686988
676 1 0.00198442 0.185555 0.692505
711 1 0.191574 0.247256 0.691019
715 1 0.318216 0.246851 0.689791
688 1 0.386524 0.189164 0.688614
719 1 0.440394 0.254192 0.689198
692 1 0.500022 0.18645 0.685765
723 1 0.565865 0.250999 0.692061
700 1 0.752448 0.188783 0.690779
704 1 0.873578 0.193823 0.688815
707 1 0.0627565 0.248355 0.686612
716 1 0.252335 0.311794 0.682951
720 1 0.372411 0.315276 0.691697
728 1 0.628393 0.309435 0.693741
727 1 0.688347 0.245672 0.685267
732 1 0.751828 0.307437 0.684749
731 1 0.819576 0.253646 0.688721
736 1 0.879816 0.313956 0.685108
735 1 0.934213 0.250865 0.68552
708 1 0.995821 0.307212 0.687277
739 1 0.0570114 0.37409 0.685457
712 1 0.124522 0.308206 0.689046
751 1 0.445804 0.372694 0.687125
724 1 0.504935 0.305374 0.686073
759 1 0.689359 0.374528 0.684531
767 1 0.940366 0.376965 0.682451
744 1 0.119268 0.434912 0.68478
743 1 0.18788 0.371537 0.686823
747 1 0.310926 0.372517 0.687011
752 1 0.380696 0.442691 0.693041
756 1 0.502929 0.442995 0.688074
755 1 0.560487 0.366544 0.691902
764 1 0.752511 0.438249 0.684286
763 1 0.817891 0.371005 0.688358
768 1 0.872164 0.440855 0.688292
740 1 0.998271 0.436244 0.677947
823 1 0.37865 0.379178 0.75734
748 1 0.245051 0.436678 0.688943
827 1 0.625467 0.368395 0.751061
760 1 0.624442 0.436317 0.685537
824 1 0.439015 0.439434 0.749097
822 1 0.315557 0.435387 0.74683
825 1 0.500218 0.382115 0.753962
772 1 0.188267 0.0632709 0.749403
774 1 0.315594 0.0658709 0.751162
820 1 0.182062 0.440019 0.751544
826 1 0.565794 0.43424 0.748597
778 1 0.567301 0.0624562 0.748067
780 1 0.68827 0.0646342 0.753729
782 1 0.804149 0.0658602 0.751246
832 1 0.934033 0.439272 0.750213
770 1 0.0621519 0.0595009 0.751071
787 1 0.12718 0.124317 0.757175
776 1 0.435527 0.0576192 0.750822
784 1 0.935059 0.0653631 0.746152
785 1 0.0010417 0.120374 0.748763
789 1 0.249999 0.127365 0.748231
790 1 0.311699 0.187441 0.752367
791 1 0.377209 0.12763 0.753284
793 1 0.500171 0.12459 0.747983
794 1 0.557495 0.183861 0.746055
795 1 0.627155 0.125163 0.747661
797 1 0.744834 0.125116 0.753782
799 1 0.870357 0.125056 0.747221
786 1 0.0609579 0.195121 0.754082
788 1 0.184015 0.190223 0.756805
792 1 0.442849 0.187809 0.749355
809 1 0.502442 0.255654 0.757229
811 1 0.624109 0.241246 0.751782
796 1 0.687567 0.183846 0.749202
813 1 0.748205 0.250717 0.755435
798 1 0.813279 0.190331 0.751587
815 1 0.874961 0.249756 0.758035
800 1 0.933772 0.187918 0.745301
801 1 0.987509 0.249182 0.753568
803 1 0.122349 0.251273 0.754185
805 1 0.251505 0.25008 0.749616
806 1 0.307856 0.312421 0.753013
807 1 0.380694 0.250436 0.748686
808 1 0.441547 0.317352 0.750369
816 1 0.937382 0.313607 0.752038
802 1 0.0607482 0.308667 0.75048
819 1 0.119325 0.36773 0.746973
804 1 0.191683 0.30913 0.743783
1803 1 0.628728 0.501941 0.747076
1793 1 0.00458818 0.501833 0.745803
1801 1 0.500882 0.498623 0.751244
665 1 0.75792 -0.00152513 0.622201
1685 1 0.624824 0.502663 0.618418
771 1 0.121425 -0.00379845 0.747213
651 1 0.311699 0.000750915 0.686231
781 1 0.750035 0.00300544 0.756746
655 1 0.44474 -0.0024121 0.686022
1689 1 0.746695 0.498778 0.625195
1687 1 0.68916 0.495798 0.685079
1795 1 0.123526 0.496345 0.747329
653 1 0.372722 0.00451533 0.627561
1691 1 0.813008 0.498667 0.689637
879 1 0.934006 0.24615 0.819644
836 1 0.129186 0.0588757 0.817189
838 1 0.252028 0.0619353 0.804685
996 1 0.992412 0.445493 0.936023
840 1 0.375236 0.0629895 0.807461
1923 1 0.0555363 0.504909 0.938606
73 1 0.254119 0.244658 1.0016
1937 1 0.50765 0.498636 0.874299
37 1 0.123182 0.128339 1.00134
834 1 0.999385 0.0630201 0.813703
853 1 0.312379 0.123475 0.813155
855 1 0.440275 0.126298 0.808699
842 1 0.503341 0.0614999 0.813991
844 1 0.622966 0.067493 0.814147
846 1 0.744069 0.0632409 0.81933
848 1 0.871021 0.0619211 0.817372
849 1 0.0602134 0.12735 0.815952
851 1 0.192824 0.125383 0.812519
905 1 0.248367 0.00132611 0.875403
857 1 0.561132 0.126375 0.813279
859 1 0.685159 0.129012 0.81604
861 1 0.811301 0.121803 0.815249
864 1 0.87321 0.181976 0.810344
863 1 0.932776 0.119253 0.812568
850 1 0.998446 0.187002 0.815343
852 1 0.118555 0.190671 0.814981
856 1 0.372307 0.183663 0.811848
858 1 0.498241 0.188689 0.811049
873 1 0.563911 0.247484 0.817293
860 1 0.625105 0.187353 0.811304
875 1 0.690141 0.249326 0.808639
862 1 0.749346 0.191039 0.812644
865 1 0.0584178 0.25152 0.81373
868 1 0.117525 0.313003 0.8167
867 1 0.182993 0.253671 0.811082
870 1 0.243817 0.314675 0.813344
869 1 0.321551 0.250728 0.811898
872 1 0.37646 0.309591 0.805565
871 1 0.437651 0.253044 0.809634
876 1 0.628095 0.310967 0.814863
878 1 0.751457 0.314881 0.812877
877 1 0.807645 0.252483 0.817627
897 1 0.996935 0.0021597 0.878346
866 1 0.996315 0.313217 0.812401
881 1 0.060399 0.375454 0.814898
883 1 0.179555 0.373504 0.81154
885 1 0.310521 0.380032 0.809624
874 1 0.498929 0.318027 0.813116
891 1 0.69233 0.378392 0.810434
880 1 0.875079 0.312337 0.814037
884 1 0.122549 0.439713 0.812511
887 1 0.442977 0.380128 0.813821
890 1 0.507651 0.439499 0.813488
889 1 0.564829 0.37151 0.813274
892 1 0.622886 0.438301 0.808331
893 1 0.810741 0.375334 0.811102
895 1 0.932153 0.376087 0.815838
882 1 0.999788 0.440234 0.811847
896 1 0.870722 0.444797 0.809632
886 1 0.246281 0.435626 0.81678
1865 1 0.569145 0.500415 0.807017
888 1 0.378864 0.440486 0.812548
854 1 0.248396 0.187346 0.81064
845 1 0.805176 0.00251746 0.817322
894 1 0.751464 0.440995 0.810772
113 1 0.506129 0.375107 1.00054
41 1 0.252015 0.125628 1.00251
1020 1 0.752012 0.436157 0.933373
898 1 0.0619452 0.0544224 0.8743
1 1 0.995323 0.00513876 0.999681
902 1 0.193083 0.0647372 0.867709
919 1 0.683923 -0.00288255 0.94093
839 1 0.440896 -0.00163155 0.816182
914 1 0.560381 0.0656018 0.875332
38 1 0.185781 0.18296 0.995878
62 1 0.935233 0.189728 0.999299
926 1 0.935757 0.0578905 0.877908
915 1 0.5618 0.00454248 0.941479
933 1 0.123891 0.124795 0.873958
937 1 0.246186 0.128184 0.877885
906 1 0.309284 0.0652534 0.873095
941 1 0.373093 0.122955 0.873042
910 1 0.438382 0.0621755 0.872814
945 1 0.500651 0.125063 0.873643
918 1 0.685609 0.0621192 0.882924
953 1 0.74943 0.130197 0.878512
922 1 0.807394 0.0639731 0.877964
957 1 0.869221 0.127145 0.875549
929 1 0.997033 0.123351 0.872393
934 1 0.187096 0.193204 0.87174
942 1 0.438676 0.189516 0.8766
946 1 0.559638 0.186628 0.87821
949 1 0.619292 0.126703 0.88088
954 1 0.813023 0.188667 0.87228
958 1 0.930138 0.185434 0.875222
930 1 0.0567921 0.193919 0.875124
969 1 0.258038 0.251723 0.873731
938 1 0.315519 0.186062 0.87579
950 1 0.687948 0.190821 0.87387
989 1 0.872046 0.250359 0.873916