LAMMPS (15 Sep 2022)
OMP_NUM_THREADS environment is not set. Defaulting to 1 thread. (src/comm.cpp:98)
  using 1 OpenMP thread(s) per MPI task
# 2d WCA system, random initial configuration

#variable density equal 0.5
variable initial_temperature equal 3.0
variable final_temperature equal 0.1
variable dt equal 0.01
variable tau equal 100*${dt}
variable tau equal 100*0.01
variable thermo_time equal 50000*${dt}
variable thermo_time equal 50000*0.01
variable equil_steps equal 50000
variable run_steps equal 100000

units           lj
atom_style      atomic
dimension       3

lattice         fcc ${density}
lattice         fcc 1.4
Lattice spacing in x,y,z = 1.4189834 1.4189834 1.4189834
region          box block 0 8 0 8 0 8
# number of atom types
create_box      1 box
Created orthogonal box = (0 0 0) to (11.351867 11.351867 11.351867)
  1 by 2 by 5 MPI processor grid
create_atoms    1 box
Created 2048 atoms
  using lattice units in orthogonal box = (0 0 0) to (11.351867 11.351867 11.351867)
  create_atoms CPU = 0.000 seconds
mass 1 1.0

velocity all create ${initial_temperature} 12345
velocity all create 3 12345

pair_style      lj/cut 1.0
#type_1 type_2 epsilon sigma cutoff
pair_coeff      1 1 10.0 0.89089871814 1.0
pair_modify shift yes

timestep ${dt}
timestep 0.01
thermo ${thermo_time}
thermo 500

fix 1 all nvt temp ${initial_temperature} ${initial_temperature} ${tau}
fix 1 all nvt temp 3 ${initial_temperature} ${tau}
fix 1 all nvt temp 3 3 ${tau}
fix 1 all nvt temp 3 3 1
run ${equil_steps}
run 50000
Generated 0 of 0 mixed pair_coeff terms from geometric mixing rule
Neighbor list info ...
  update: every = 1 steps, delay = 0 steps, check = yes
  max neighbors/atom: 2000, page size: 100000
  master list distance cutoff = 1.3
  ghost atom cutoff = 1.3
  binsize = 0.65, bins = 18 18 18
  1 neighbor lists, perpetual/occasional/extra = 1 0 0
  (1) pair lj/cut, perpetual
      attributes: half, newton on
      pair build: half/bin/atomonly/newton
      stencil: half/bin/3d
      bin: standard
Per MPI rank memory allocation (min/avg/max) = 3.088 | 3.088 | 3.089 Mbytes
   Step          Temp          E_pair         E_mol          TotEng         Press     
         0   3              0              0              4.4978027      4.1979492    
       500   2.8997205      3.7191415      0              8.0665984      71.464971    
      1000   2.9480256      3.7111993      0              8.1310785      71.215516    
      1500   3.0001174      3.8002024      0              8.2981812      72.19267     
      2000   3.0285266      3.9795396      0              8.5201114      74.19121     
      2500   2.9894347      4.0466671      0              8.5286297      75.205559    
      3000   3.0668408      3.8142156      0              8.4122306      72.604259    
      3500   3.0412144      3.8345633      0              8.3941575      72.779417    
      4000   3.0110395      3.8667636      0              8.3811174      73.163935    
      4500   3.0066148      3.936058       0              8.4437781      73.930129    
      5000   3.0511919      3.9173685      0              8.4919216      73.962675    
      5500   3.0600957      3.9292279      0              8.5171302      73.893969    
      6000   3.0640797      3.8540744      0              8.4479498      73.255245    
      6500   3.0720586      3.9184588      0              8.5242965      73.864423    
      7000   3.0324683      3.9386887      0              8.48517        74.063767    
      7500   3.0289496      3.9592596      0              8.5004656      74.773128    
      8000   2.9705881      4.0084281      0              8.4621345      74.688101    
      8500   3.0725309      3.8861005      0              8.4926464      73.396244    
      9000   3.0542232      3.9505717      0              8.5296694      73.989213    
      9500   3.0073901      3.9378001      0              8.4466826      73.819696    
     10000   3.0620596      3.9280295      0              8.5188762      73.927867    
     10500   3.0198893      3.9772852      0              8.5049073      74.482925    
     11000   3.0315006      3.9110286      0              8.4560592      73.607794    
     11500   3.1011136      3.881172       0              8.5305711      73.381855    
     12000   3.022489       3.9687278      0              8.5002475      74.522671    
     12500   2.9779319      4.0482552      0              8.512972       75.106658    
     13000   3.030673       3.9579884      0              8.5017782      74.282972    
     13500   3.0507924      3.9728062      0              8.5467603      74.063212    
     14000   2.9586702      4.0420927      0              8.477931       75.004995    
     14500   2.9599589      4.0213591      0              8.4591295      74.988853    
     15000   3.0319534      4.0243117      0              8.5700212      74.362846    
     15500   3.0126079      3.9999247      0              8.5166301      74.676944    
     16000   3.0790324      3.8162791      0              8.4325725      72.786519    
     16500   3.0622362      3.9020945      0              8.493206       73.493251    
     17000   3.0691961      3.8553795      0              8.4569257      73.096118    
     17500   2.9986972      3.9714328      0              8.4672823      74.191259    
     18000   3.0784664      3.8921604      0              8.5076054      73.695131    
     18500   3.0254667      3.9860049      0              8.5219891      74.186412    
     19000   3.0764928      3.9058397      0              8.5183256      74.163202    
     19500   3.0486198      3.9143526      0              8.4850494      73.251063    
     20000   3.1011         3.8085836      0              8.4579623      72.706805    
     20500   3.0569835      3.8938721      0              8.4771083      73.422882    
     21000   3.088757       3.8879104      0              8.5187836      73.129772    
     21500   3.0946873      3.8620808      0              8.5018452      73.044534    
     22000   3.064339       3.8644288      0              8.4586929      73.220999    
     22500   3.0620591      3.9261382      0              8.5169841      74.156411    
     23000   3.0454258      3.9501474      0              8.5160557      74.592426    
     23500   3.1006599      3.8900216      0              8.5387406      73.26849     
     24000   3.0529772      3.878394       0              8.4556237      73.39612     
     24500   2.998459       3.9784376      0              8.4739299      74.377849    
     25000   3.027725       3.9927944      0              8.5321643      74.827307    
     25500   3.0411859      3.9046069      0              8.4641583      73.399198    
     26000   2.9982859      3.9897241      0              8.4849569      74.567792    
     26500   3.0402714      3.9305712      0              8.4887516      74.038286    
     27000   3.1126734      3.7494385      0              8.4161688      71.778278    
     27500   3.0625062      3.8773551      0              8.4688714      73.284086    
     28000   3.0795681      3.877768       0              8.4948647      73.158552    
     28500   2.9859655      4.0181887      0              8.49495        75.218347    
     29000   3.036976       3.9498348      0              8.5030745      74.163757    
     29500   3.0858094      3.8410996      0              8.4675536      72.359503    
     30000   3.110925       3.8136994      0              8.4778084      72.402908    
     30500   3.0087026      3.9635946      0              8.4744449      73.822994    
     31000   3.0668347      3.9020569      0              8.5000627      73.42329     
     31500   3.0767068      3.8686095      0              8.4814163      72.93668     
     32000   3.0588031      3.9137339      0              8.4996982      73.545996    
     32500   3.0584966      3.9212904      0              8.5067952      73.931002    
     33000   3.0329467      3.8847175      0              8.4319162      73.249102    
     33500   2.9833492      4.0398377      0              8.5126764      75.097573    
     34000   3.0596198      3.8988028      0              8.4859915      73.811693    
     34500   3.0552659      3.9025703      0              8.4832314      73.114401    
     35000   3.0485585      3.9444305      0              8.5150354      73.95586     
     35500   3.0026744      4.0002292      0              8.5020415      74.804259    
     36000   2.9661182      4.0787615      0              8.5257664      75.315689    
     36500   3.0305272      3.9640617      0              8.5076329      74.487262    
     37000   3.0167144      3.9103849      0              8.4332469      73.572724    
     37500   3.0581163      3.942299       0              8.5272335      73.888652    
     38000   3.0688049      3.8365783      0              8.4375381      72.819679    
     38500   3.0727535      3.9381406      0              8.5450203      74.089309    
     39000   3.0174277      3.924571       0              8.4485025      73.817941    
     39500   3.0668119      3.88029        0              8.4782617      73.427865    
     40000   3.1009749      3.8635355      0              8.5127267      73.314459    
     40500   3.0028992      3.9958266      0              8.497976       74.950552    
     41000   3.037606       3.9772268      0              8.5314109      74.566532    
     41500   3.0197075      3.9603942      0              8.4877437      74.475137    
     42000   3.0457645      3.9432755      0              8.5096914      73.93045     
     42500   3.0550418      3.8381272      0              8.4184523      72.630527    
     43000   3.0433582      3.9435763      0              8.5063846      73.898912    
     43500   3.0202927      3.9565066      0              8.4847335      74.305592    
     44000   3.0526605      3.943026       0              8.519781       73.855357    
     44500   3.0712971      3.8398818      0              8.4445779      73.128697    
     45000   3.0257743      3.9722896      0              8.5087349      74.077497    
     45500   3.0348237      3.9437723      0              8.4937852      73.697906    
     46000   3.0538246      3.9484193      0              8.5269195      74.033817    
     46500   3.059759       3.9081897      0              8.4955872      73.430023    
     47000   3.0550132      3.9151656      0              8.4954479      73.550222    
     47500   3.0328425      3.947186       0              8.4942284      73.90399     
     48000   3.0539578      3.8838328      0              8.4625326      73.344499    
     48500   3.0150693      3.9598438      0              8.4802395      74.118612    
     49000   3.0586591      3.8940745      0              8.479823       73.333761    
     49500   3.0274175      4.011413       0              8.5503218      75.028511    
     50000   2.991243       4.0148885      0              8.4995622      74.46893     
Loop time of 4.49258 on 10 procs for 50000 steps with 2048 atoms

Performance: 9615848.887 tau/day, 11129.455 timesteps/s, 22.793 Matom-step/s
99.5% CPU use with 10 MPI tasks x 1 OpenMP threads

MPI task timing breakdown:
Section |  min time  |  avg time  |  max time  |%varavg| %total
---------------------------------------------------------------
Pair    | 0.76041    | 0.84153    | 0.97177    |   8.6 | 18.73
Neigh   | 1.3844     | 1.6453     | 2.1835     |  23.9 | 36.62
Comm    | 0.96391    | 1.339      | 1.8819     |  27.0 | 29.80
Output  | 0.0013737  | 0.0017995  | 0.005429   |   2.9 |  0.04
Modify  | 0.20593    | 0.50069    | 1.1197     |  49.3 | 11.14
Other   |            | 0.1642     |            |       |  3.66

Nlocal:          204.8 ave         231 max         188 min
Histogram: 4 2 0 0 0 1 0 0 1 2
Nghost:          510.8 ave         544 max         459 min
Histogram: 3 0 0 1 0 0 0 0 1 5
Neighs:         1254.1 ave        1431 max        1152 min
Histogram: 4 1 1 1 0 0 0 0 1 2

Total # of neighbors = 12541
Ave neighs/atom = 6.1235352
Neighbor list builds = 20249
Dangerous builds = 0

unfix 1
dump           1 all atom ${run_steps} 3dWCA_T${final_temperature}_d${density}_N${run_steps}.lammpstrj
dump           1 all atom 100000 3dWCA_T${final_temperature}_d${density}_N${run_steps}.lammpstrj
dump           1 all atom 100000 3dWCA_T0.1_d${density}_N${run_steps}.lammpstrj
dump           1 all atom 100000 3dWCA_T0.1_d1.4_N${run_steps}.lammpstrj
dump           1 all atom 100000 3dWCA_T0.1_d1.4_N100000.lammpstrj
dump           2 all dcd ${thermo_time} 3dWCA_T${final_temperature}_d${density}_N${run_steps}.dcd
dump           2 all dcd 500 3dWCA_T${final_temperature}_d${density}_N${run_steps}.dcd
dump           2 all dcd 500 3dWCA_T0.1_d${density}_N${run_steps}.dcd
dump           2 all dcd 500 3dWCA_T0.1_d1.4_N${run_steps}.dcd
dump           2 all dcd 500 3dWCA_T0.1_d1.4_N100000.dcd
fix 1 all nvt temp ${initial_temperature} ${final_temperature} ${tau}
fix 1 all nvt temp 3 ${final_temperature} ${tau}
fix 1 all nvt temp 3 0.1 ${tau}
fix 1 all nvt temp 3 0.1 1

run ${run_steps}
run 100000
Generated 0 of 0 mixed pair_coeff terms from geometric mixing rule
Per MPI rank memory allocation (min/avg/max) = 3.141 | 3.142 | 3.142 Mbytes
   Step          Temp          E_pair         E_mol          TotEng         Press     
     50000   2.991243       4.0148885      0              8.4995622      74.46893     
     50500   3.038301       3.8354434      0              8.3906696      73.136515    
     51000   3.0162368      3.9393392      0              8.4614852      73.663717    
     51500   2.9438284      3.9204192      0              8.3340057      73.321641    
     52000   2.9825144      3.8649174      0              8.3365046      72.99071     
     52500   2.9562292      3.851856       0              8.2840346      73.068224    
     53000   2.9623009      3.8015223      0              8.242804       72.167002    
     53500   2.9594078      3.770416       0              8.2073602      71.844113    
     54000   2.913264       3.772755       0              8.1405173      71.840621    
     54500   2.9066167      3.7444077      0              8.1022039      71.201975    
     55000   2.8826687      3.7905977      0              8.1124894      72.292404    
     55500   2.8476283      3.7354631      0              8.00482        70.937307    
     56000   2.8645842      3.6892799      0              7.9840581      70.749932    
     56500   2.8128127      3.7086931      0              7.925852       71.01993     
     57000   2.845595       3.6702295      0              7.9365377      70.380998    
     57500   2.8431677      3.5695014      0              7.8321705      69.435627    
     58000   2.7929024      3.6378515      0              7.8251595      69.842126    
     58500   2.7992206      3.5693027      0              7.7660834      69.44839     
     59000   2.7150548      3.6395565      0              7.7101501      69.874456    
     59500   2.6839868      3.7033435      0              7.7273579      70.714649    
     60000   2.7377442      3.538721       0              7.6433321      68.827483    
     60500   2.6904232      3.5350751      0              7.5687394      68.574479    
     61000   2.6893652      3.5343709      0              7.566449       68.772071    
     61500   2.6844463      3.4329555      0              7.4576589      67.385206    
     62000   2.5779757      3.4904386      0              7.3555141      68.458638    
     62500   2.6831319      3.3064627      0              7.3291954      66.257673    
     63000   2.6726131      3.4419989      0              7.4489611      67.520229    
     63500   2.5521456      3.3644128      0              7.190762       66.48068     
     64000   2.5538986      3.2998518      0              7.1288292      65.708761    
     64500   2.5758745      3.3353932      0              7.1973183      66.243241    
     65000   2.54144        3.3858357      0              7.1961342      66.870067    
     65500   2.5976412      3.3208454      0              7.2154047      65.898831    
     66000   2.5749635      3.3078765      0              7.1684358      65.930919    
     66500   2.5017092      3.2806023      0              7.0313337      65.243206    
     67000   2.5889649      3.3456352      0              7.2271864      66.54422     
     67500   2.4822456      3.2364299      0              6.9579802      64.901216    
     68000   2.4727257      3.2864969      0              6.9937743      65.267071    
     68500   2.4732715      3.1607453      0              6.8688411      64.056208    
     69000   2.4136543      3.0905218      0              6.7092354      63.03301     
     69500   2.3960803      3.2170587      0              6.8094242      64.919283    
     70000   2.3236613      3.0916813      0              6.5754713      63.037203    
     70500   2.4598047      3.0638823      0              6.7517877      62.734511    
     71000   2.3005597      3.0347489      0              6.4839035      62.128747    
     71500   2.3507313      3.0941145      0              6.6184897      63.08453     
     72000   2.3720914      3.0018454      0              6.5582452      61.833232    
     72500   2.3753809      3.0449003      0              6.6062318      62.228765    
     73000   2.3475472      3.0255524      0              6.5451539      61.752611    
     73500   2.3446652      2.9619088      0              6.4771894      61.16573     
     74000   2.2541299      3.0461934      0              6.4257373      62.494616    
     74500   2.2847416      2.9741075      0              6.3995465      61.43029     
     75000   2.2382562      3.012196       0              6.3679409      61.479233    
     75500   2.1687094      3.0018248      0              6.2533005      61.67962     
     76000   2.2638889      2.8681431      0              6.2623184      59.844698    
     76500   2.2207807      2.9332342      0              6.2627787      60.691639    
     77000   2.2322654      2.8559176      0              6.2026807      59.891212    
     77500   2.2043982      2.859904       0              6.1648867      59.972922    
     78000   2.1723587      2.8241973      0              6.0811443      59.435608    
     78500   2.1469063      2.7865046      0              6.0052916      58.822654    
     79000   2.2026291      2.8058889      0              6.1082193      59.148511    
     79500   2.0856344      2.8223433      0              5.9492674      59.202381    
     80000   2.1601657      2.796183       0              6.0348494      58.881506    
     80500   2.0750342      2.7481372      0              5.8591687      58.029929    
     81000   2.147128       2.7485728      0              5.9676921      58.195445    
     81500   2.0674787      2.6459206      0              5.7456244      56.60145     
     82000   2.1114266      2.6810743      0              5.8466677      57.652735    
     82500   1.9704391      2.7046018      0              5.6588172      57.266809    
     83000   2.0227237      2.6987536      0              5.7313576      57.167711    
     83500   1.9887164      2.5708472      0              5.5524653      55.789253    
     84000   2.0109058      2.6003687      0              5.6152546      56.131494    
     84500   1.9712469      2.6355992      0              5.5910258      56.458717    
     85000   2.0239725      2.526846       0              5.5613223      55.068155    
     85500   1.9296795      2.5824548      0              5.4755607      55.797071    
     86000   1.935992       2.5864797      0              5.4890497      56.093132    
     86500   1.9826426      2.6178481      0              5.5903599      56.253097    
     87000   1.9325216      2.4575588      0              5.3549257      54.21894     
     87500   1.9995538      2.4632937      0              5.4611598      54.354684    
     88000   1.9134681      2.4307192      0              5.2995199      53.919216    
     88500   1.885624       2.5061849      0              5.3332399      55.007722    
     89000   1.8730706      2.4356811      0              5.243915       53.775374    
     89500   1.9044608      2.5248875      0              5.3801838      54.992788    
     90000   1.823829       2.3663976      0              5.1008052      52.798325    
     90500   1.8201556      2.3473761      0              5.0762764      52.518226    
     91000   1.8233296      2.3701029      0              5.1037618      52.729984    
     91500   1.7871862      2.2206588      0              4.9001292      51.031155    
     92000   1.782974       2.3434378      0              5.0165929      52.192107    
     92500   1.7261818      2.2874155      0              4.8754238      51.900982    
     93000   1.7465198      2.2490882      0              4.8675888      51.125379    
     93500   1.7387043      2.2083497      0              4.8151327      50.426036    
     94000   1.7347506      2.2422586      0              4.843114       51.094648    
     94500   1.675693       2.1530127      0              4.6653248      49.602364    
     95000   1.6806103      2.2348768      0              4.7545614      50.894651    
     95500   1.7006518      2.1629919      0              4.7127241      49.920776    
     96000   1.6209146      2.165133       0              4.5953178      49.924371    
     96500   1.6510818      2.1102991      0              4.5857124      49.103841    
     97000   1.6082629      2.1272814      0              4.5384977      49.046351    
     97500   1.641334       2.0731537      0              4.5339525      48.586374    
     98000   1.5846221      2.0892         0              4.4649725      48.859143    
     98500   1.5756227      2.1050541      0              4.4673341      49.00264     
     99000   1.5720286      2.0304277      0              4.3873191      48.208044    
     99500   1.5450451      2.074136       0              4.390572       48.488423    
    100000   1.5155197      2.0321207      0              4.3042904      48.022298    
    100500   1.5447573      1.9942996      0              4.3103041      47.487095    
    101000   1.6051037      2.0117258      0              4.4182058      47.848463    
    101500   1.5002659      1.9306586      0              4.1799586      46.232245    
    102000   1.4743552      1.9570833      0              4.1675362      46.887646    
    102500   1.46212        1.9143144      0              4.1064235      46.378425    
    103000   1.447553       1.9230167      0              4.0932859      46.420963    
    103500   1.4495395      1.8966345      0              4.069882       46.089287    
    104000   1.4345509      1.8643634      0              4.015139       45.347631    
    104500   1.4690822      1.8077244      0              4.0102718      44.627926    
    105000   1.4154004      1.8199756      0              3.9420396      44.903899    
    105500   1.387036       1.8156991      0              3.8952372      44.616056    
    106000   1.3960959      1.7674323      0              3.8605536      43.853455    
    106500   1.3662019      1.7991846      0              3.8474868      44.079468    
    107000   1.3532744      1.7177204      0              3.7466409      42.96477     
    107500   1.3438997      1.7664732      0              3.7813384      43.862766    
    108000   1.302714       1.675974       0              3.6290908      42.278418    
    108500   1.3412759      1.7039931      0              3.7149246      43.017725    
    109000   1.281528       1.6159248      0              3.5372782      41.587124    
    109500   1.2759554      1.6672055      0              3.580204       42.4383      
    110000   1.2337164      1.629924       0              3.479595       41.561847    
    110500   1.2634143      1.5762245      0              3.4704205      40.88389     
    111000   1.224757       1.6014897      0              3.4377281      41.443696    
    111500   1.2021166      1.6139631      0              3.4162576      41.323039    
    112000   1.2443853      1.5948353      0              3.4605019      41.057759    
    112500   1.1662386      1.5309846      0              3.2794882      40.045524    
    113000   1.1840362      1.5446242      0              3.3198113      40.151394    
    113500   1.1647193      1.4343945      0              3.1806204      38.582983    
    114000   1.1558839      1.5042871      0              3.2372664      39.634481    
    114500   1.1175735      1.4285229      0              3.1040647      38.538112    
    115000   1.1237599      1.4627116      0              3.1475285      39.145429    
    115500   1.0684844      1.4183082      0              3.0202523      38.096518    
    116000   1.0631904      1.4173803      0              3.0113872      38.214979    
    116500   1.0421284      1.4097538      0              2.9721831      38.204282    
    117000   1.0709381      1.3454198      0              2.9510426      36.972911    
    117500   1.0213567      1.3411572      0              2.8724442      36.888739    
    118000   1.0468208      1.3273074      0              2.8967719      36.608145    
    118500   1.0366999      1.2795291      0              2.8338197      35.975527    
    119000   0.96835817     1.3063216      0              2.7581497      36.121709    
    119500   0.98638793     1.2785547      0              2.7574142      35.710579    
    120000   0.98724165     1.2724755      0              2.7526149      35.762783    
    120500   0.93701137     1.2644017      0              2.6692325      35.605682    
    121000   0.93907418     1.2428646      0              2.6507881      35.17114     
    121500   0.94919195     1.1663565      0              2.5894492      34.032699    
    122000   0.90625591     1.1816828      0              2.5404029      34.043297    
    122500   0.88363182     1.1923403      0              2.5171408      34.202839    
    123000   0.87842139     1.1116874      0              2.4286761      32.896396    
    123500   0.86295631     1.1482915      0              2.4420939      33.327156    
    124000   0.8350356      1.1015507      0              2.3534925      32.735436    
    124500   0.82050698     1.1129322      0              2.3430918      32.7968      
    125000   0.8337076      1.0596422      0              2.309593       32.098725    
    125500   0.80967064     1.065218       0              2.279131       31.946198    
    126000   0.80953955     1.062459       0              2.2761754      31.792299    
    126500   0.77264833     1.0224857      0              2.1808923      31.404302    
    127000   0.7549899      0.99021899     0              2.1221509      30.557159    
    127500   0.74836976     0.99498682     0              2.1169933      30.610722    
    128000   0.71131103     0.94706543     0              2.013511       29.698431    
    128500   0.72733059     0.95261444     0              2.0430776      29.82293     
    129000   0.69738707     0.88529432     0              1.9308642      28.578199    
    129500   0.70212559     0.91252557     0              1.9651997      29.085581    
    130000   0.66769515     0.90709846     0              1.9081522      28.914598    
    130500   0.66833859     0.89361196     0              1.8956303      28.744289    
    131000   0.64382814     0.83871628     0              1.8039869      27.692493    
    131500   0.64914884     0.80178685     0              1.7750347      26.861654    
    132000   0.63065529     0.80599418     0              1.7515152      27.039506    
    132500   0.60026731     0.79402679     0              1.6939881      26.580204    
    133000   0.61314371     0.79229291     0              1.7115594      26.844073    
    133500   0.58576033     0.73338386     0              1.6115953      25.480791    
    134000   0.56705314     0.75597617     0              1.6061406      25.870877    
    134500   0.54962021     0.70583813     0              1.5298659      24.9611      
    135000   0.53695946     0.71068402     0              1.5157299      25.003166    
    135500   0.51140071     0.66491903     0              1.4316455      23.832441    
    136000   0.52149066     0.67402618     0              1.4558802      24.290036    
    136500   0.49332631     0.62592403     0              1.3655522      23.244463    
    137000   0.47538499     0.66041355     0              1.3731429      23.890584    
    137500   0.46518933     0.5912502      0              1.2886935      22.403195    
    138000   0.45708674     0.58346805     0              1.2687634      22.140542    
    138500   0.43789846     0.55079029     0              1.2073173      21.479188    
    139000   0.41039925     0.5655976      0              1.1808959      21.634854    
    139500   0.41032463     0.51937598     0              1.1345624      20.733012    
    140000   0.39813665     0.49873481     0              1.0956482      20.14778     
    140500   0.38822403     0.47510645     0              1.0571582      19.689271    
    141000   0.3635971      0.46720159     0              1.0123309      19.312308    
    141500   0.34886949     0.45077672     0              0.97382543     19.060448    
    142000   0.33177718     0.43771359     0              0.93513636     18.619671    
    142500   0.31415706     0.41978258     0              0.89078807     18.173918    
    143000   0.30313502     0.39530042     0              0.84978093     17.650044    
    143500   0.2927896      0.37187418     0              0.81084413     17.020783    
    144000   0.27395986     0.35850237     0              0.76924151     16.638766    
    144500   0.26791256     0.32418903     0              0.72586164     15.689994    
    145000   0.24934256     0.31168746     0              0.68551869     15.395925    
    145500   0.23047463     0.30102096     0              0.6465641      14.992973    
    146000   0.21680303     0.27937556     0              0.60442131     14.35987     
    146500   0.20232102     0.26019991     0              0.56353326     13.835126    
    147000   0.19091296     0.23633099     0              0.52256059     13.082316    
    147500   0.17441405     0.21981488     0              0.48130822     12.566021    
    148000   0.16347124     0.19590683     0              0.44099397     11.665774    
    148500   0.14737692     0.1782223      0              0.39917973     11.071692    
    149000   0.13294044     0.16127208     0              0.36058537     10.36753     
    149500   0.11831398     0.14141552     0              0.31879984     9.7044328    
    150000   0.10343287     0.12261345     0              0.277687       8.8755413    
Loop time of 7.19775 on 10 procs for 100000 steps with 2048 atoms

Performance: 12003745.497 tau/day, 13893.224 timesteps/s, 28.453 Matom-step/s
99.5% CPU use with 10 MPI tasks x 1 OpenMP threads

MPI task timing breakdown:
Section |  min time  |  avg time  |  max time  |%varavg| %total
---------------------------------------------------------------
Pair    | 1.479      | 1.6495     | 1.952      |  13.6 | 22.92
Neigh   | 1.7035     | 2.0118     | 2.6714     |  26.0 | 27.95
Comm    | 1.7363     | 2.2391     | 3.0459     |  29.9 | 31.11
Output  | 0.083643   | 0.083794   | 0.084743   |   0.1 |  1.16
Modify  | 0.422      | 0.90808    | 1.8219     |  56.5 | 12.62
Other   |            | 0.3054     |            |       |  4.24

Nlocal:          204.8 ave         227 max         186 min
Histogram: 2 2 2 0 0 0 0 1 0 3
Nghost:          520.5 ave         545 max         480 min
Histogram: 1 2 0 1 0 0 0 0 2 4
Neighs:         1228.8 ave        1383 max        1116 min
Histogram: 2 2 2 0 0 1 0 0 1 2

Total # of neighbors = 12288
Ave neighs/atom = 6
Neighbor list builds = 25996
Dangerous builds = 0
Total wall time: 0:00:11
