ITEM: TIMESTEP
100000
ITEM: NUMBER OF ATOMS
2048
ITEM: BOX BOUNDS pp pp pp
0.0000000000000000e+00 1.3679807573413575e+01
0.0000000000000000e+00 1.3679807573413575e+01
0.0000000000000000e+00 1.3679807573413575e+01
ITEM: ATOMS id type xs ys zs
587 1 0.460938 0.0138616 0.0932807
26 1 0.381091 0.178563 0.157602
1389 1 0.353742 0.152164 0.00125142
1391 1 0.213124 0.414987 0.0206922
544 1 0.0171507 0.38818 0.0257273
773 1 0.589793 0.0259786 0.0593872
410 1 0.402034 0.0640483 0.098094
1971 1 0.200337 0.0854558 0.0939976
98 1 0.0409567 0.354746 0.116347
2 1 0.0711558 0.0705904 0.160957
261 1 0.335043 0.146436 0.0873019
1698 1 0.0244349 0.116575 0.0215308
1839 1 0.907518 0.411325 0.0288518
1317 1 0.98192 0.0716058 0.164916
326 1 0.879699 0.0292674 0.00795877
1016 1 0.44243 0.158207 0.0297326
869 1 0.922023 0.0581927 0.0551271
1047 1 0.184504 0.16657 0.179184
1794 1 0.889744 0.476048 0.149327
1480 1 0.860356 0.178274 0.152662
1019 1 0.257931 0.417512 0.133053
1731 1 0.43547 0.241989 0.0688086
1865 1 0.350335 0.417648 0.138199
2047 1 0.504727 0.256728 0.0383684
666 1 0.0986395 0.062309 0.0656064
1694 1 0.257527 0.00569959 0.02431
1622 1 0.838005 0.258516 0.166997
858 1 0.366557 0.213255 0.0515663
1868 1 0.384984 0.106642 0.171403
1678 1 0.476782 0.165457 0.114352
1499 1 0.524721 0.162124 0.0177642
128 1 0.376113 0.269275 0.168734
904 1 0.134928 0.28267 0.184538
1856 1 0.471603 0.37531 0.0674887
312 1 0.323025 0.216526 0.124063
1247 1 0.90975 0.271699 0.0772142
707 1 0.662048 0.318681 0.105269
1452 1 0.305606 0.344035 0.00525512
236 1 0.337433 0.0153045 0.142718
122 1 0.662963 0.426321 0.165786
1920 1 0.77015 0.443164 0.156198
433 1 0.656043 0.356952 0.0128389
489 1 0.191807 0.220696 0.0452778
306 1 0.908509 0.350117 0.0813672
658 1 0.421615 0.0311404 0.158099
83 1 0.297192 0.0512164 0.0774699
616 1 0.545646 0.367043 0.165277
1937 1 0.194188 0.0059531 0.185128
1414 1 0.593538 0.135015 0.0356692
1453 1 0.104061 0.223871 0.199617
357 1 0.0814284 0.151125 0.0465019
1599 1 0.0424109 0.448159 0.189392
1738 1 0.192749 0.331365 0.198184
783 1 0.663601 0.0286893 0.085057
1492 1 0.813101 0.456434 0.0928047
211 1 0.603666 0.44935 0.011767
1048 1 0.550882 0.401539 0.0981381
1193 1 0.65218 0.452414 0.0962669
1429 1 0.0575196 0.237975 0.088995
1987 1 0.965436 0.328176 0.113442
1875 1 0.150609 0.2156 0.10564
761 1 0.229487 0.239268 0.182098
603 1 0.82385 0.419722 0.0315298
1025 1 0.856453 0.0145377 0.0790957
2006 1 0.724389 0.162761 -9.2182e-05
642 1 0.00104262 0.0438938 0.0630876
379 1 0.0966373 0.16685 0.11088
350 1 0.217607 0.302373 0.138461
907 1 0.487047 0.05802 0.193812
1675 1 0.522078 0.317716 0.0708505
653 1 0.288126 0.289525 0.189783
1658 1 0.158086 0.378537 0.142244
729 1 0.80042 0.322987 0.035309
380 1 0.312758 0.133669 0.157833
1426 1 0.47439 0.362813 0.136439
659 1 0.375407 0.285035 0.0678847
1832 1 0.392978 0.0866076 0.0117009
1553 1 0.973856 0.252528 0.0498655
562 1 0.202576 0.316564 0.0312618
1173 1 0.206473 0.12005 0.0262183
1250 1 0.849417 0.213927 0.0474723
1035 1 0.615386 0.292622 0.0229513
421 1 0.723374 0.0932185 0.139805
1243 1 0.559662 0.471012 0.0724017
1637 1 0.734435 0.394669 0.0542491
1293 1 0.764973 0.0646176 0.094608
1211 1 0.297872 0.474994 0.147788
615 1 0.121064 0.214595 0.0367617
936 1 0.703158 0.305068 0.0355785
1502 1 0.0454174 0.444361 0.114559
1335 1 0.800566 0.321183 0.109339
1572 1 0.246044 0.372525 0.0720407
784 1 0.791811 0.170441 0.0211697
1145 1 0.467923 0.0772475 0.128768
1467 1 0.670183 0.162013 0.135264
389 1 0.582832 0.425065 0.157832
527 1 0.532834 0.00400057 0.184407
1412 1 0.092142 0.395875 0.0736833
559 1 0.527962 0.0445261 0.0977019
1786 1 0.513907 0.439745 0.163211
1540 1 0.480559 0.0771176 0.0546962
648 1 0.824944 0.052753 0.151468
1756 1 0.0467422 0.00260273 0.0312124
1521 1 0.146138 0.292922 0.106967
269 1 0.245379 0.0870985 0.163031
1476 1 0.25575 0.178231 0.147868
1241 1 0.839415 0.106627 0.0160124
976 1 0.428577 0.455399 0.0579872
1375 1 0.783049 0.254339 0.0901613
1214 1 0.201721 0.475965 0.0827742
1529 1 0.897685 0.0580494 0.155412
1941 1 0.12575 0.452002 0.114741
2031 1 0.375812 0.395219 0.0531938
1850 1 0.569487 0.215615 0.0647879
1162 1 0.299581 0.469503 0.0184095
1106 1 0.911774 0.230354 0.187228
1261 1 0.146444 0.356912 0.0550834
1269 1 0.262922 0.355412 0.169567
1615 1 0.307822 0.360163 0.110572
394 1 0.740642 0.197799 0.150458
226 1 0.588276 0.307566 0.107503
195 1 0.351126 0.0231168 0.0429985
1364 1 0.753481 0.373164 0.142118
568 1 0.797319 0.183936 0.0893488
1076 1 0.0378067 0.13568 0.134632
491 1 0.787331 0.313636 0.181456
486 1 0.736402 0.467728 0.0356959
1392 1 0.360574 0.475209 0.0622891
1103 1 0.310102 0.294131 0.115436
1512 1 0.769952 0.249001 0.0133272
583 1 0.127057 0.293906 0.0183045
1827 1 0.514182 0.11725 0.168578
987 1 0.0646562 0.338939 0.18852
819 1 0.628593 0.383657 0.0847288
298 1 0.659969 0.100248 0.171723
39 1 0.19701 0.454083 0.163315
1826 1 0.999443 0.395882 0.154142
1362 1 0.408737 0.145095 0.0971257
782 1 0.18244 0.0411713 0.0270133
1528 1 0.531696 0.253603 0.136641
1992 1 0.962993 0.146272 0.0297922
1169 1 0.411502 0.356736 0.0995962
649 1 0.936434 0.166437 0.166247
979 1 0.149694 0.0427659 0.109598
829 1 0.166022 0.101034 0.163527
1823 1 0.57669 0.361087 0.0379395
48 1 0.876825 0.327432 0.141651
1220 1 0.146712 0.136558 0.0708438
1171 1 0.720983 0.221303 0.0731645
1309 1 0.917502 0.390601 0.167211
633 1 0.92845 0.313615 0.0187231
1620 1 0.949031 0.411096 0.0892269
1627 1 0.0546591 0.290311 0.0400544
468 1 0.702428 0.323722 0.16584
111 1 0.259759 0.294232 0.06122
2029 1 0.0688125 0.462417 0.0316062
409 1 0.647629 0.110411 0.0916591
1310 1 0.494255 0.313199 0.178952
1374 1 0.911771 0.487479 0.0427589
1959 1 0.137723 0.425462 0.0096953
278 1 0.641167 0.244372 0.0706031
2026 1 0.305438 0.205445 0.0151152
1894 1 0.307943 0.407535 0.0605521
1152 1 0.944896 0.480519 0.105273
260 1 0.580806 0.216753 0.190512
1905 1 0.0811997 0.294703 0.131808
912 1 0.438192 0.313405 0.0420099
1462 1 0.854078 0.396964 0.138573
1201 1 0.280114 0.114033 0.0191467
1775 1 0.720486 0.0254635 0.153407
138 1 0.457907 0.289827 0.118262
155 1 0.822927 0.117261 0.0884429
391 1 0.970265 0.2556 0.119142
1034 1 0.944834 0.117024 0.0973649
1543 1 0.528277 0.412439 0.0233937
1574 1 0.638836 0.0270067 0.171048
441 1 0.403876 0.383908 0.166713
424 1 0.723288 0.0921544 0.0447459
650 1 0.583963 0.0835903 0.126041
1417 1 0.00198321 0.177396 0.0854005
1585 1 0.4399 0.437874 0.129576
859 1 0.248696 0.153991 0.0789885
1597 1 0.544518 0.0849925 0.00810593
811 1 0.92882 0.194655 0.0920146
1736 1 0.79042 0.00502632 0.0361736
199 1 0.248899 0.234531 0.105903
1053 1 0.133696 0.0920354 0.0097208
1384 1 0.527526 0.125524 0.0950548
1011 1 0.477576 0.221027 0.192947
1835 1 0.543866 0.184991 0.13716
171 1 0.645458 0.25524 0.142535
121 1 0.448913 0.128852 0.193461
737 1 0.673081 0.171976 0.0589959
1917 1 0.106601 0.145291 0.177184
550 1 0.783632 0.118453 0.170701
126 1 0.616985 0.486481 0.162124
595 1 0.38082 0.482867 0.152739
1799 1 0.258828 0.0103146 0.159063
984 1 0.0335853 0.206442 0.170533
439 1 0.580071 0.0768469 0.197482
1607 1 0.801787 0.499771 0.0380266
209 1 0.763753 0.246548 0.193715
1749 1 0.637229 0.358218 0.197768
1821 1 0.489058 0.46838 0.00149306
924 1 0.182798 0.0846459 0.23644
1838 1 0.223363 0.147837 0.274276
266 1 0.689596 0.404525 0.229832
1159 1 0.477584 0.13811 0.315693
712 1 0.765167 0.392043 0.212543
1055 1 0.958576 0.461362 0.209087
584 1 0.583405 0.0251364 0.350984
1623 1 0.873274 0.439303 0.210912
724 1 0.972339 0.192104 0.317168
674 1 0.106692 0.0942778 0.227763
960 1 0.83156 0.261107 0.30585
1901 1 0.930799 0.113885 0.269243
878 1 0.530405 0.346777 0.24608
1593 1 0.720478 0.112745 0.216918
1643 1 0.343264 0.13976 0.226484
1886 1 0.042025 0.481391 0.263948
1717 1 0.0779246 0.4674 0.375102
625 1 0.49359 0.0900038 0.255901
1376 1 0.895227 0.288034 0.282776
1768 1 0.080235 0.192441 0.286043
541 1 0.847069 0.130936 0.217094
290 1 0.0202946 0.150239 0.280883
531 1 0.803679 0.405348 0.347004
1093 1 0.654642 0.0917377 0.252765
1525 1 0.0182085 0.380684 0.220888
106 1 0.81753 0.0232367 0.298572
1960 1 0.632468 0.204229 0.372254
1372 1 0.284492 0.438949 0.207441
1199 1 0.915886 0.298927 0.358175
1167 1 0.276555 0.485337 0.263804
1010 1 0.547433 0.296255 0.318646
634 1 0.316629 0.265394 0.327057
686 1 0.258708 0.342614 0.311889
1993 1 0.111285 0.458504 0.249753
1299 1 0.454874 0.10538 0.379735
1648 1 0.62916 0.38702 0.355201
330 1 0.0818978 0.271876 0.331239
882 1 0.977315 0.257839 0.371731
689 1 0.776915 0.0523632 0.233477
835 1 0.0373237 0.110751 0.208207
1258 1 0.763681 0.0599655 0.352071
626 1 0.963806 0.338509 0.199913
613 1 0.100801 0.372421 0.270017
1382 1 0.971499 0.297489 0.261147
131 1 0.711166 0.491734 0.239935
112 1 0.267387 0.2525 0.378781
382 1 0.184756 0.478775 0.250379
1117 1 0.25333 0.257942 0.246533
28 1 0.60533 0.00912483 0.259277
1806 1 0.952383 0.188161 0.39298
606 1 0.997891 0.0559009 0.324094
1455 1 0.611472 0.109585 0.351925
80 1 0.283805 0.406527 0.354013
1398 1 0.455399 0.429374 0.203795
524 1 0.34907 0.198097 0.266626
437 1 0.148806 0.264882 0.352783
777 1 0.462432 0.299942 0.356245
1319 1 0.160423 0.116458 0.307221
579 1 0.638055 0.0584654 0.39595
212 1 0.627574 0.229027 0.268361
1876 1 0.90545 0.135061 0.335545
118 1 0.992043 0.372128 0.377654
27 1 0.0353217 0.40887 0.307641
492 1 0.394315 0.0583748 0.307006
137 1 0.492161 0.254469 0.302961
806 1 0.0618375 0.022465 0.362054
800 1 0.707823 0.200187 0.360153
1227 1 0.32935 0.0109868 0.34699
939 1 0.226048 0.20141 0.352483
81 1 0.302626 0.32277 0.255055
457 1 0.0955391 0.230514 0.399572
631 1 0.16472 0.484501 0.352513
185 1 0.429041 0.155862 0.257547
345 1 0.916926 0.043976 0.229982
599 1 0.0352186 0.105327 0.363311
189 1 0.418398 0.00308456 0.344406
1379 1 0.292856 0.198983 0.202711
396 1 0.977447 0.172166 0.219007
508 1 0.386423 0.0653032 0.376305
1135 1 0.734752 0.286001 0.375669
1983 1 0.968483 0.495368 0.392355
768 1 0.911164 0.0479888 0.350679
1179 1 0.806402 0.190915 0.211311
1308 1 0.478048 0.199569 0.350991
1590 1 0.986494 0.482976 0.314286
1517 1 0.127771 0.421405 0.316097
97 1 0.761754 0.364672 0.296379
1842 1 0.777487 0.129968 0.341277
1343 1 0.523567 -0.000158391 0.285975
1745 1 0.641504 0.386561 0.288274
1844 1 0.306365 0.480188 0.344832
953 1 0.553338 0.455037 0.308817
710 1 0.456182 0.460492 0.26849
851 1 0.403806 0.22297 0.222582
1060 1 0.489073 0.420417 0.325803
691 1 0.364358 0.139674 0.38543
163 1 0.420968 0.41416 0.393088
397 1 0.311488 0.057881 0.292138
1913 1 0.700385 0.371054 0.353817
1915 1 0.790309 0.476489 0.293662
1098 1 0.322726 0.347652 0.372737
846 1 0.235031 0.118138 0.390131
488 1 0.899189 0.227973 0.345299
985 1 0.50676 0.0462935 0.378666
273 1 0.449195 0.496748 0.3778
880 1 0.841465 0.0994052 0.385409
1681 1 0.046344 0.252602 0.228036
655 1 0.533953 0.349782 0.363813
500 1 0.599398 0.316455 0.378731
1158 1 0.192434 0.224655 0.246592
874 1 0.0616592 0.0821973 0.295827
1801 1 0.674722 0.201948 0.222132
299 1 0.0881725 0.344663 0.344929
474 1 0.549403 0.109299 0.30184
1982 1 0.797577 0.00542341 0.375745
166 1 0.747193 0.453203 0.377256
366 1 0.532589 0.238197 0.244701
387 1 0.412099 0.152254 0.331878
1017 1 0.210355 0.266769 0.309416
1889 1 0.524012 0.165074 0.218195
455 1 0.402386 0.230135 0.302966
1545 1 0.256983 0.014152 0.30647
673 1 0.376996 0.295822 0.292982
732 1 0.436944 0.299677 0.246091
850 1 0.0929659 0.163589 0.373477
340 1 0.714199 0.143012 0.315771
170 1 0.548479 0.490531 0.23523
190 1 0.645414 0.0543491 0.318202
1104 1 0.398956 0.483726 0.230915
1471 1 0.959869 0.119662 0.3769
1051 1 0.911554 0.375561 0.244418
385 1 0.797402 0.458064 0.22311
1328 1 0.242752 0.369208 0.236306
1723 1 0.338642 0.0381916 0.207188
58 1 0.633479 0.451048 0.233946
1507 1 0.108086 0.097311 0.365027
1808 1 0.778509 0.218638 0.305883
113 1 0.863432 0.0845001 0.308352
1550 1 0.936058 0.233784 0.269676
563 1 0.233172 0.456295 0.352936
1962 1 0.757805 0.165554 0.259038
184 1 0.563654 0.233429 0.360473
172 1 0.946975 0.430087 0.277346
1626 1 0.729749 0.432075 0.295889
1831 1 0.221627 0.404048 0.306745
308 1 0.556895 0.417669 0.379541
1015 1 0.731589 0.076307 0.290876
1352 1 0.296719 0.402077 0.272324
374 1 0.0337084 0.0246204 0.244112
344 1 0.536058 0.183941 0.294678
1682 1 0.839402 0.337706 0.274833
1904 1 0.348928 0.440338 0.240673
1150 1 0.892997 0.378998 0.327003
1322 1 0.589132 0.274845 0.230858
713 1 0.145499 0.312459 0.253811
1140 1 0.833637 0.325077 0.355421
1206 1 0.979411 0.340659 0.317278
1330 1 0.851126 0.171508 0.302862
621 1 0.863277 0.452337 0.328671
785 1 0.272554 0.0840111 0.238633
1443 1 0.160895 0.190505 0.319144
1645 1 0.0402889 0.318434 0.283866
1138 1 0.289113 0.171503 0.29808
1044 1 0.84887 0.172987 0.382142
612 1 0.161783 0.357403 0.322702
518 1 0.636279 0.16167 0.310771
865 1 0.206594 0.386453 0.383418
214 1 0.419724 0.373638 0.241878
733 1 0.587197 0.397279 0.238968
1477 1 0.412821 0.0880105 0.237798
1795 1 0.675281 0.251302 0.320669
1270 1 0.706723 0.000329837 0.348724
1026 1 0.0359604 0.19789 0.353831
203 1 0.672362 0.31025 0.395559
1891 1 0.125386 0.0474244 0.320223
1562 1 0.836792 0.420558 0.271873
1825 1 0.557032 0.381536 0.303235
1331 1 0.693757 0.307664 0.270078
1203 1 0.891625 0.182007 0.241479
997 1 0.389613 0.289188 0.374699
1096 1 0.626555 0.308134 0.30615
892 1 0.297439 0.0851409 0.363049
355 1 0.460334 0.0425727 0.296203
1218 1 0.456541 0.351316 0.305067
1497 1 0.664394 0.441099 0.327008
498 1 0.592114 0.169531 0.246654
1020 1 0.538815 0.150501 0.361094
1465 1 0.616862 0.480205 0.372595
545 1 0.934285 0.444867 0.355259
1639 1 0.757265 0.354456 0.396512
1672 1 0.703487 0.0453018 0.222834
1197 1 0.383171 0.390498 0.324944
683 1 0.754397 0.270755 0.267068
889 1 0.126336 0.246221 0.274703
1843 1 0.173559 0.385165 0.242479
1828 1 0.84619 0.359561 0.204308
968 1 0.282082 0.184371 0.385633
1092 1 0.356109 0.340504 0.205012
943 1 0.665623 0.281635 0.209042
793 1 0.352354 0.438529 0.396874
1970 1 0.165607 0.199095 0.399076
145 1 0.0871067 0.293828 0.447115
84 1 0.755962 0.306573 0.487915
502 1 0.622699 0.229205 0.593939
1133 1 0.85554 0.454001 0.541987
405 1 0.945522 0.253028 0.447597
1123 1 0.0631375 0.301261 0.545142
54 1 0.646606 0.374882 0.564609
516 1 0.525412 0.449624 0.585187
1378 1 0.993895 0.148803 0.569846
1986 1 0.936754 0.042204 0.545059
1938 1 0.023136 0.450795 0.526719
1735 1 0.842038 0.0996149 0.580374
448 1 0.16789 0.0315122 0.495008
755 1 0.726616 0.479374 0.495479
480 1 0.142956 0.331976 0.477064
1065 1 0.673608 0.254188 0.554722
268 1 0.339074 0.299543 0.425559
675 1 0.0753315 0.447915 0.475281
1557 1 0.100778 0.353249 0.583768
1225 1 0.158552 0.1246 0.525952
841 1 0.773735 0.347421 0.55093
367 1 1.0007 0.0727915 0.423252
1185 1 0.940636 0.232039 0.527601
1933 1 0.556608 0.0679762 0.552939
1532 1 0.881579 0.270688 0.56327
758 1 0.458982 0.407477 0.460473
1350 1 0.0467147 0.365267 0.520069
1977 1 0.642831 0.34677 0.492312
908 1 0.81401 0.235791 0.419643
1498 1 0.549766 0.280025 0.583574
967 1 0.983364 0.431427 0.596355
471 1 0.703069 0.428094 0.443693
295 1 0.894053 0.137423 0.438762
1018 1 0.977686 0.293879 0.541036
1383 1 0.219961 0.479889 0.453026
699 1 0.31087 0.221642 0.452819
996 1 0.269439 0.0869056 0.449914
178 1 0.940109 0.387883 0.438142
1981 1 0.787679 0.413853 0.493579
280 1 0.350673 0.390497 0.454771
144 1 0.812566 0.338765 0.451138
692 1 0.744944 0.243129 0.511718
1568 1 0.782486 0.104915 0.524673
807 1 0.9024 0.019319 0.434679
1930 1 0.444592 0.00741838 0.412429
2017 1 0.425792 0.00414982 0.577183
1027 1 0.122051 0.411741 0.538585
165 1 0.878409 0.441623 0.403782
327 1 0.216436 0.348301 0.45948
1072 1 0.201382 0.303703 0.4058
1973 1 0.693291 0.169002 0.582874
1340 1 0.193726 0.497057 0.51254
1466 1 0.875966 0.358838 0.420223
1957 1 0.145966 0.299777 0.57785
910 1 0.930485 0.490316 0.476419
995 1 0.186713 0.370327 0.52611
1860 1 0.92616 0.182241 0.578667
191 1 0.956112 0.490615 0.567136
1248 1 0.867334 0.410898 0.470126
368 1 0.531015 0.277979 0.518553
1530 1 0.919431 0.333153 0.561919
347 1 0.624604 0.0493798 0.46586
998 1 0.454585 0.275138 0.482609
717 1 0.8268 0.0342516 0.535719
592 1 0.0709534 0.0616054 0.419482
656 1 0.725155 0.0418549 0.485226
964 1 0.462919 0.0791572 0.448207
267 1 0.0336334 0.234894 0.457226
1647 1 0.246181 0.147571 0.512021
86 1 0.0847986 0.178081 0.554143
125 1 0.435232 0.206756 0.495497
1172 1 0.0336918 0.500195 0.424381
1153 1 0.852951 0.199401 0.577568
682 1 0.622772 0.447457 0.529182
1415 1 0.297606 0.372152 0.512512
1086 1 0.241053 0.250951 0.585085
1420 1 0.432711 0.239977 0.419343
638 1 0.217503 0.302892 0.51831
720 1 0.24687 0.38791 0.579148
521 1 0.519603 0.378257 0.432342
425 1 0.558803 0.0617549 0.435862
1405 1 0.396404 0.198693 0.559528
935 1 0.515937 0.188375 0.428214
1559 1 0.501887 0.280089 0.430234
228 1 0.93881 0.105688 0.571647
1284 1 0.371081 0.0872151 0.440024
1237 1 0.00162056 0.18144 0.495613
1191 1 0.106271 0.242954 0.508804
847 1 0.36253 0.085911 0.552277
1692 1 0.0263409 0.238952 0.560359
1157 1 0.846323 0.344073 0.544396
1766 1 0.195554 0.0414543 0.412741
1125 1 0.584451 0.137601 0.425446
836 1 0.539402 0.195859 0.511481
1216 1 0.330884 0.477769 0.453981
1504 1 0.807328 0.124893 0.442876
756 1 0.296877 0.0892475 0.525313
53 1 0.839639 0.268927 0.476926
566 1 0.734979 0.36643 0.457833
1176 1 0.78813 0.498339 0.56009
526 1 0.384839 0.329776 0.57369
1555 1 0.221344 0.0461374 0.536397
1394 1 0.578774 0.264598 0.430115
19 1 0.913075 0.314825 0.49225
1556 1 0.755797 0.152636 0.40862
1932 1 0.488938 0.094863 0.564313
1316 1 0.047979 0.172216 0.432728
1668 1 0.460873 0.261892 0.551615
1591 1 0.373023 0.288326 0.487927
1595 1 0.304031 0.197553 0.546076
1950 1 0.988096 0.443207 0.433303
1688 1 0.583543 0.40106 0.582318
1903 1 0.452328 0.346487 0.409306
1129 1 0.267516 0.329199 0.414256
899 1 0.872 0.0698003 0.496039
694 1 0.693771 0.458453 0.566197
1360 1 0.285125 0.276367 0.51337
1952 1 0.197736 0.441753 0.564034
887 1 0.960223 0.115161 0.465387
479 1 0.400465 0.140066 0.51018
825 1 0.160501 0.399695 0.468038
365 1 0.610546 0.181948 0.47857
665 1 0.317111 0.0456463 0.410482
1720 1 0.058087 0.352148 0.422884
1788 1 0.00919353 0.0304308 0.523179
1235 1 0.992635 0.362909 0.573387
1764 1 0.426269 0.064001 0.52519
227 1 0.138513 0.456994 0.412685
1337 1 0.504646 0.449059 0.422554
159 1 0.773848 0.164311 0.582288
735 1 0.586363 0.378846 0.514203
1174 1 0.226124 0.0181966 0.465119
2033 1 0.602405 0.29788 0.530215
50 1 0.662061 0.0668093 0.535108
619 1 0.76507 0.184178 0.474356
2044 1 0.549273 0.160354 0.578549
804 1 0.0881764 0.0383801 0.512189
601 1 0.170156 0.249091 0.475729
1457 1 0.237386 0.41564 0.489918
1858 1 0.52156 0.350938 0.502429
1033 1 0.111753 0.177508 0.475176
844 1 0.105107 0.124418 0.433167
452 1 0.446166 0.489757 0.56097
434 1 0.828539 0.474447 0.45515
981 1 0.405592 0.350423 0.506839
324 1 0.674139 0.234651 0.425448
1514 1 0.508893 0.453448 0.514905
375 1 0.556213 0.433185 0.466204
1732 1 0.411964 0.470749 0.446038
1373 1 0.352281 0.431537 0.546874
384 1 0.930644 0.173864 0.492647
230 1 0.288669 0.423489 0.431315
1779 1 0.474257 0.174845 0.555206
293 1 0.325031 0.381596 0.591136
443 1 0.325149 0.145236 0.496842
1570 1 0.0302295 0.0904777 0.492421
1896 1 0.0139403 0.315395 0.473766
762 1 0.80194 0.428226 0.597044
89 1 0.376701 0.181137 0.448105
1833 1 0.415612 0.395692 0.557619
1630 1 0.304985 0.0181352 0.588761
1075 1 0.443758 0.147375 0.434851
1817 1 0.074662 0.0961336 0.549396
1002 1 0.780238 0.0606948 0.426376
1186 1 0.857228 0.197397 0.478354
1170 1 0.881599 0.483419 0.598982
652 1 0.226253 0.17316 0.579749
10 1 0.225412 0.208064 0.461694
1907 1 0.670187 0.110899 0.470816
1495 1 0.704658 0.0734485 0.420838
346 1 0.5892 0.123388 0.521009
1255 1 0.857945 0.135081 0.519594
954 1 0.882556 0.262072 0.420189
2035 1 0.976093 0.374023 0.496122
493 1 0.636599 0.389145 0.423441
716 1 0.745122 0.241943 0.437411
1251 1 0.485825 0.324503 0.570957
510 1 0.14989 0.0610797 0.58954
820 1 0.344768 0.270178 0.575786
117 1 0.708838 0.369914 0.596466
1345 1 0.917365 0.421965 0.544478
1353 1 0.673356 0.28309 0.479007
303 1 0.691121 0.192568 0.481406
476 1 0.741301 0.0293625 0.555875
927 1 0.268605 0.450093 0.543005
216 1 0.701163 0.324271 0.53403
175 1 0.809054 0.269829 0.562965
1022 1 0.620071 0.49067 0.459397
1469 1 0.110266 0.493228 0.54087
2009 1 0.354603 0.0242013 0.510853
1327 1 0.333328 0.146351 0.591686
65 1 0.136402 0.366857 0.409997
2028 1 0.505472 0.132416 0.487203
1423 1 0.188927 0.142383 0.452336
972 1 0.163724 0.197454 0.554355
250 1 0.793415 0.415014 0.422325
1363 1 0.639815 0.312815 0.593933
41 1 0.026258 0.291905 0.408891
1985 1 0.666342 0.132852 0.403259
1584 1 0.578261 0.337042 0.635409
522 1 0.504849 0.414611 0.774751
1754 1 0.949456 0.134928 0.636106
1810 1 0.710669 0.160872 0.782637
1141 1 0.598409 0.0429512 0.617132
186 1 0.328112 0.300365 0.708852
577 1 0.671126 0.00158639 0.697511
818 1 0.995159 0.20024 0.730753
1911 1 0.39556 0.157755 0.645594
1043 1 0.780921 0.312634 0.672755
1463 1 0.78716 0.174031 0.675094
1031 1 0.472398 0.162261 0.635937
1342 1 0.144319 0.0847425 0.659838
1461 1 0.35134 0.0710685 0.751017
1114 1 0.133002 0.482353 0.628383
1862 1 0.711499 0.297433 0.630958
821 1 0.115263 0.483346 0.702593
18 1 0.387401 0.495006 0.7448
1743 1 0.761265 0.472754 0.771187
1961 1 0.309145 0.306617 0.624494
1487 1 0.665965 0.138039 0.685459
62 1 0.779617 0.394157 0.652921
843 1 0.12112 0.330038 0.792165
952 1 0.320764 0.207032 0.632914
1751 1 0.506488 0.183281 0.697898
1177 1 0.949966 0.348761 0.706079
1650 1 0.63702 0.226884 0.785652
1935 1 0.102412 0.343958 0.688362
1780 1 0.310181 0.121836 0.658303
1979 1 0.359212 0.0724563 0.661362
285 1 0.880601 0.231466 0.647162
696 1 0.151245 0.011165 0.676123
2021 1 0.36444 0.256858 0.659869
1777 1 0.11942 0.088689 0.783588
1003 1 0.0840956 0.415138 0.712653
481 1 0.409478 0.350218 0.637126
1819 1 0.418722 0.377609 0.753906
1127 1 0.658382 0.271113 0.674232
1797 1 0.87871 0.375903 0.781278
1814 1 0.576949 0.0167719 0.681594
1520 1 0.556431 0.292351 0.721935
548 1 0.0714206 0.377658 0.774719
281 1 0.202677 0.108862 0.772117
753 1 0.474183 0.318676 0.722278
1468 1 0.240453 0.0903754 0.623448
842 1 0.733062 0.484959 0.626275
1882 1 0.818294 0.323919 0.791797
1990 1 0.334036 0.222021 0.721764
915 1 0.520033 0.0586635 0.638626
1824 1 0.268207 0.249194 0.663776
136 1 0.362265 0.143144 0.710406
426 1 0.0791804 0.176463 0.76191
1014 1 0.982596 0.473991 0.742081
970 1 0.0119629 0.0471667 0.692326
1677 1 0.33829 0.0153712 0.701867
1665 1 0.118795 0.214434 0.700898
1770 1 0.733244 0.120397 0.637098
44 1 0.80899 0.107226 0.643989
1146 1 0.298175 0.050345 0.79751
70 1 0.659936 0.422455 0.756428
542 1 0.675462 0.102962 0.761337
207 1 0.627924 0.0570373 0.715993
536 1 0.366374 0.181782 0.782746
1818 1 0.445386 0.409358 0.62593
1344 1 0.922327 0.412471 0.725229
241 1 0.881921 0.0432214 0.715737
42 1 0.58813 0.471952 0.613186
742 1 0.422755 0.0435923 0.686425
342 1 0.49262 0.0776921 0.735775
1436 1 0.412571 0.0702367 0.617196
1030 1 0.113024 0.195623 0.622154
994 1 0.820101 0.107647 0.738432
90 1 0.197758 0.448928 0.642063
893 1 0.813029 0.383234 0.753933
462 1 0.154903 0.416575 0.707479
1482 1 0.563766 0.0121173 0.754618
1464 1 0.0599176 0.24797 0.654664
1403 1 0.266368 0.0527428 0.676376
222 1 0.170952 0.358213 0.743993
282 1 0.0462331 0.166701 0.644662
378 1 0.456223 0.43517 0.726312
1663 1 0.346955 0.380939 0.691114
1908 1 0.497669 0.253295 0.691954
739 1 0.909644 0.113309 0.718356
92 1 0.322989 0.49847 0.605734
1906 1 0.42633 0.012356 0.755064
22 1 0.263597 0.362425 0.729281
2025 1 0.425778 0.220611 0.64067
1927 1 0.0360935 0.108369 0.782965
876 1 0.978625 0.203174 0.62862
1175 1 0.0500472 0.130034 0.706552
204 1 0.282268 0.416801 0.779137
348 1 0.0993849 0.46127 0.77268
1390 1 0.169273 0.14556 0.620673
2008 1 0.00370045 0.400906 0.725521
909 1 0.841584 0.291903 0.623757
507 1 0.996233 0.345692 0.766624
428 1 0.87164 0.0324349 0.617088
223 1 0.164966 0.177574 0.783624
9 1 0.204737 0.224556 0.710311
105 1 0.827176 0.223486 0.707208
1575 1 0.751545 0.0600078 0.761789
1209 1 0.29468 0.430357 0.648845
875 1 0.966873 0.129483 0.79787
1652 1 0.057714 0.038069 0.782375
75 1 0.197367 0.312615 0.786699
337 1 0.446756 0.107041 0.672917
202 1 0.277229 0.48444 0.760664
1820 1 0.593373 0.104187 0.669731
1887 1 0.36774 0.439988 0.618394
1762 1 0.123673 0.139731 0.705927
246 1 0.583755 0.161513 0.727979
2043 1 0.640487 0.128945 0.612169
1302 1 0.616053 0.223209 0.702251
1413 1 0.656662 0.421298 0.616446
1281 1 0.965148 0.377534 0.640351
701 1 0.954962 0.457741 0.676494
1760 1 0.905924 0.199523 0.732066
1496 1 0.0257599 0.446796 0.665796
1577 1 0.0300531 0.0707816 0.606654
1702 1 0.649383 0.349883 0.661004
1649 1 0.564888 0.185363 0.650536
116 1 0.753113 0.217909 0.766079
630 1 0.159729 0.386082 0.615725
383 1 0.753282 0.236395 0.673314
528 1 0.499956 0.00704311 0.691339
499 1 0.985241 0.120673 0.727638
687 1 0.465281 0.132073 0.769101
555 1 0.699394 0.0617929 0.602375
164 1 0.564239 0.261677 0.65737
857 1 0.17965 0.229901 0.644506
714 1 0.692272 0.490162 0.746976
253 1 0.188856 0.430905 0.774655
173 1 0.849168 0.312285 0.696052
509 1 0.11765 0.293571 0.642726
1128 1 0.177473 0.0514953 0.728921
1790 1 0.362 0.331366 0.768307
1864 1 0.393419 0.114494 0.795944
1219 1 0.427178 0.197963 0.707266
1984 1 0.359424 0.414942 0.77985
929 1 0.742382 0.389513 0.735014
1617 1 0.598577 0.373374 0.712167
339 1 0.0380727 0.357227 0.629243
1370 1 0.871868 0.160339 0.637907
973 1 0.688603 0.213353 0.646053
926 1 0.515078 0.382604 0.700313
1642 1 0.718325 0.425484 0.679558
1660 1 0.0850339 0.0527193 0.64801
107 1 0.642163 0.443817 0.693552
1274 1 0.185813 0.322629 0.683607
101 1 0.650418 0.302304 0.749905
1890 1 0.495536 0.224306 0.613466
233 1 0.474492 0.28593 0.632942
871 1 0.299803 0.112815 0.72596
435 1 0.482483 0.341343 0.79613
1673 1 0.800694 0.0407213 0.672781
1885 1 0.883788 0.0936622 0.655522
950 1 0.864505 0.429618 0.676816
313 1 0.921841 0.28967 0.619167
2011 1 0.238723 0.372095 0.65377
1192 1 0.808229 0.224916 0.625554
1407 1 0.332208 0.441517 0.723102
1155 1 0.797239 0.438583 0.712559
1475 1 0.370407 0.0128932 0.623489
2039 1 0.56224 0.418588 0.664412
1651 1 0.567831 0.429036 0.745882
130 1 0.841541 0.0567821 0.784614
1411 1 0.398515 0.245631 0.756992
1988 1 0.411584 0.463031 0.666649
16 1 0.929511 0.32759 0.791261
827 1 0.261486 0.177406 0.658851
2027 1 0.0295847 0.309691 0.71034
902 1 0.23212 0.209878 0.790794
151 1 0.22862 0.127093 0.708623
1441 1 0.941584 0.279581 0.705518
416 1 0.990661 0.271131 0.760114
543 1 0.880815 0.356772 0.63868
242 1 0.71975 0.0618233 0.684239
558 1 0.271648 0.183228 0.734576
463 1 0.712282 0.183905 0.709922
740 1 0.794708 0.283872 0.736363
1021 1 0.55959 0.208 0.776212
849 1 0.517884 0.483665 0.771485
1565 1 0.1481 0.278151 0.729241
795 1 0.846168 0.169704 0.757702
1752 1 0.445668 0.372348 0.688863
573 1 0.356092 0.00344531 0.784293
605 1 0.507808 0.369964 0.627376
1822 1 0.290391 0.299085 0.769254
1558 1 0.0572567 0.248876 0.737559
920 1 0.991367 0.300336 0.612805
1325 1 0.740767 0.123346 0.732092
1195 1 0.949539 0.0660754 0.640668
1007 1 0.721381 0.314877 0.717815
512 1 0.239586 0.0286612 0.751462
1083 1 0.506695 0.458543 0.680118
1400 1 0.228923 0.422021 0.703593
1369 1 0.41339 0.29055 0.701046
1256 1 0.971272 0.0559588 0.759025
1444 1 0.879996 0.285532 0.751528
177 1 0.840204 0.445668 0.76501
752 1 0.917796 0.427754 0.621299
438 1 0.547413 0.132159 0.794217
412 1 0.678891 0.00555174 0.769134
801 1 0.126095 0.248652 0.798379
1300 1 0.597641 0.0662784 0.797011
251 1 0.88788 0.49853 0.709277
1294 1 0.200401 0.494906 0.713238
794 1 0.0549275 0.417611 0.602633
751 1 0.0998013 0.0990378 0.947803
1433 1 0.399544 0.370741 0.957168
1581 1 0.884017 0.293565 0.931395
1226 1 0.274508 0.371511 0.895865
506 1 0.382369 0.242453 0.915516
693 1 0.103017 0.0320571 0.926427
318 1 0.202029 0.495977 0.981106
1273 1 0.0954916 0.483413 0.84798
760 1 0.752785 0.382813 0.874017
1001 1 0.604176 0.0743579 0.971381
239 1 0.303135 0.475023 0.939426
2032 1 0.429565 0.396472 0.893374
51 1 0.185575 0.26032 0.963933
520 1 0.445503 0.25595 0.88095
369 1 0.0061245 0.202989 0.913377
264 1 0.914294 0.475272 0.865364
726 1 0.490441 0.302499 0.857073
672 1 0.351184 0.472767 0.824106
810 1 0.772205 0.122854 0.808369
1989 1 0.662308 0.444516 0.895237
88 1 0.242379 0.309691 0.907668
1506 1 0.245672 0.442884 0.916451
1395 1 0.669666 0.113119 0.989308
1544 1 0.526523 0.279889 0.913008
1699 1 0.496988 0.360783 0.961115
1693 1 0.136419 0.264813 0.890817
1233 1 0.593733 0.188706 0.989436
1948 1 0.120949 0.375827 0.903204
1867 1 0.649093 0.0256404 0.833303
1715 1 0.195251 0.391293 0.892588
1997 1 0.453365 0.499122 0.807582
1139 1 0.492863 0.123996 0.85682
1841 1 0.452648 0.0424076 0.899556
1198 1 0.222129 0.353687 0.964357
1296 1 0.778508 0.454533 0.842272
1659 1 0.398961 0.356646 0.824462
1769 1 0.829668 0.463379 0.897296
700 1 0.847757 0.490011 0.974147
408 1 0.432645 0.420709 0.996092
1272 1 0.957688 0.13154 0.884908
465 1 0.260851 0.133113 0.821158
1074 1 0.841588 0.283629 0.846091
1121 1 0.180881 0.204684 0.872252
2036 1 0.0495224 0.174226 0.963442
197 1 0.485881 0.385961 0.852184
1853 1 0.695582 0.159477 0.85344
1297 1 0.695133 0.0875856 0.924059
1829 1 0.768056 0.120793 0.909187
867 1 0.436363 0.121965 0.91205
458 1 0.174358 0.329731 0.918861
1354 1 0.380269 0.163722 0.911553
1674 1 0.0943157 0.139303 0.84211
1439 1 0.0408145 0.214327 0.806208
1727 1 0.986428 0.470096 0.87319
158 1 0.106745 0.232663 0.967445
549 1 0.0576892 0.287578 0.83031
167 1 0.604258 0.441065 0.857211
179 1 0.464541 0.315013 0.920916
1137 1 0.0298299 0.386625 0.845045
1700 1 0.837957 0.104871 0.917626
1589 1 0.246213 0.27458 0.843843
1511 1 0.714125 0.498412 0.93841
535 1 0.901022 0.355874 0.879314
1771 1 0.762154 0.39136 0.80485
32 1 0.926163 0.0485606 0.937433
646 1 0.395938 0.317435 0.90799
930 1 0.0704492 0.206357 0.86721
669 1 0.930645 0.188488 0.807217
362 1 0.528457 0.23216 0.97567
1079 1 0.591661 0.141161 0.932414
769 1 0.909951 0.452735 0.935379
727 1 0.492625 0.168943 0.914177