LAMMPS (15 Sep 2022)
OMP_NUM_THREADS environment is not set. Defaulting to 1 thread. (src/comm.cpp:98)
  using 1 OpenMP thread(s) per MPI task
Lattice spacing in x,y,z = 1.7099759 1.7099759 1.7099759
Created orthogonal box = (0 0 0) to (13.679808 13.679808 13.679808)
  1 by 2 by 5 MPI processor grid
Created 2048 atoms
  using lattice units in orthogonal box = (0 0 0) to (13.679808 13.679808 13.679808)
  create_atoms CPU = 0.000 seconds
Generated 0 of 0 mixed pair_coeff terms from geometric mixing rule
Neighbor list info ...
  update: every = 1 steps, delay = 0 steps, check = yes
  max neighbors/atom: 2000, page size: 100000
  master list distance cutoff = 1.3
  ghost atom cutoff = 1.3
  binsize = 0.65, bins = 22 22 22
  1 neighbor lists, perpetual/occasional/extra = 1 0 0
  (1) pair lj/cut, perpetual
      attributes: half, newton on
      pair build: half/bin/atomonly/newton
      stencil: half/bin/3d
      bin: standard
Setting up Verlet run ...
  Unit style    : lj
  Current step  : 0
  Time step     : 0.01
Per MPI rank memory allocation (min/avg/max) = 3.087 | 3.091 | 3.093 Mbytes
   Step          Temp          E_pair         E_mol          TotEng         Press     
         0   3              0              0              4.4978027      2.3988281    
       500   3.0047349      1.0117577      0              5.5166594      12.650003    
      1000   2.9682376      1.0520699      0              5.5022523      12.741374    
      1500   2.9381588      1.0121437      0              5.41723        12.519309    
      2000   2.9264215      0.97060694     0              5.3580958      12.06846     
      2500   2.9007121      0.91682801     0              5.2657716      11.759931    
      3000   2.9759872      0.946952       0              5.4087531      12.089351    
      3500   3.0330392      0.9588331      0              5.5061705      12.296473    
      4000   3.0785973      0.98415346     0              5.5997946      12.458212    
      4500   3.1577496      1.0159467      0              5.7502583      12.65128     
      5000   2.9077916      1.1031806      0              5.4627382      13.172759    
      5500   3.0465695      0.97773167     0              5.5453545      12.317536    
      6000   3.0085013      1.0506975      0              5.561246       12.902536    
      6500   2.985356       0.95835515     0              5.4342026      12.317967    
      7000   3.0095429      0.94823955     0              5.4603496      12.171354    
      7500   2.9860897      1.0240818      0              5.5010293      12.674948    
      8000   2.9763178      1.0329167      0              5.4952134      12.705886    
      8500   3.0719289      1.0556187      0              5.6612621      12.867946    
      9000   3.0059893      0.95476217     0              5.4615445      12.19839     
      9500   2.9948383      0.99592147     0              5.4859854      12.446684    
     10000   3.0400067      0.96477166     0              5.5225552      12.282913    
     10500   3.0262439      0.99670034     0              5.5338496      12.47856     
     11000   2.9250249      0.93525582     0              5.3206508      11.909394    
     11500   2.960112       1.0442736      0              5.4822736      12.766759    
     12000   3.05216        0.9547979      0              5.5308025      12.252095    
     12500   3.0420194      1.0389707      0              5.5997718      12.716064    
     13000   3.049668       0.99157827     0              5.5638466      12.444112    
     13500   3.016427       0.92401069     0              5.4464419      11.851645    
     14000   2.9391812      1.0045195      0              5.4111386      12.382409    
     14500   3.0206538      0.9660954      0              5.4948637      12.149795    
     15000   3.0650644      0.94857244     0              5.5439241      12.215728    
     15500   3.0443568      1.0399819      0              5.6042874      12.748885    
     16000   2.9840621      0.97359302     0              5.4475006      12.195689    
     16500   3.0309595      0.99236686     0              5.5365861      12.411456    
     17000   3.0433907      1.1154577      0              5.6783146      13.346945    
     17500   2.9902842      1.0215881      0              5.5048242      12.48661     
     18000   3.0216543      1.0067381      0              5.5370064      12.560142    
     18500   3.1060233      0.97787588     0              5.634636       12.420189    
     19000   3.0747947      1.0627284      0              5.6726684      13.020624    
     19500   3.0837957      0.98701329     0              5.6104483      12.56192     
     20000   2.9944851      0.99659419     0              5.4861287      12.494956    
     20500   2.9357059      0.94492094     0              5.3463296      12.083999    
     21000   2.9144082      0.96361052     0              5.3330882      12.296218    
     21500   2.9487034      0.95147206     0              5.3723675      11.981412    
     22000   2.881942       0.98381676     0              5.304619       12.208352    
     22500   2.9993284      0.91222025     0              5.4090161      11.956256    
     23000   3.0145937      0.91055253     0              5.4302352      11.860685    
     23500   2.9479524      0.96000249     0              5.379772       11.970387    
     24000   2.9785682      0.9057466      0              5.3714174      11.6928      
     24500   3.0255267      0.93625219     0              5.4723263      11.95799     
     25000   3.0722037      0.95160173     0              5.5576571      12.130822    
     25500   2.9906415      0.96613231     0              5.4499042      12.099116    
     26000   3.0226658      0.9248516      0              5.4566364      11.948289    
     26500   3.0487085      0.94862922     0              5.5194591      12.339148    
     27000   3.0065595      1.0253383      0              5.5329754      12.551448    
     27500   3.0576474      0.99669407     0              5.5809257      12.457036    
     28000   3.0371053      0.94682875     0              5.5002623      12.056156    
     28500   2.9738068      1.0107642      0              5.4692962      12.593513    
     29000   2.9653313      0.95572383     0              5.4015489      12.080478    
     29500   2.9877494      0.91997138     0              5.3994072      11.816127    
     30000   3.0385902      0.87051173     0              5.4261715      11.580372    
     30500   2.9760174      0.96118575     0              5.4230321      12.262968    
     31000   3.0345942      0.9800192      0              5.5296879      12.169159    
     31500   3.0274556      1.0067717      0              5.5457377      12.650193    
     32000   3.0499132      1.0661242      0              5.6387601      12.887467    
     32500   3.021441       0.97902635     0              5.5089748      12.161965    
     33000   2.9420648      0.96471436     0              5.3756567      12.154697    
     33500   2.9789529      0.95995561     0              5.4262031      12.216115    
     34000   3.0197915      0.96993276     0              5.4974082      12.304788    
     34500   2.8841702      1.0193202      0              5.343463       12.569257    
     35000   2.9585101      0.99941689     0              5.4350152      12.472861    
     35500   2.9682503      0.90187783     0              5.3520793      11.679681    
     36000   3.0024516      0.92501037     0              5.4264887      12.030122    
     36500   2.9856298      0.99721896     0              5.473477       12.408824    
     37000   2.9969635      1.0030529      0              5.496303       12.535396    
     37500   3.0412931      1.0128968      0              5.5726088      12.598844    
     38000   3.0540036      0.94889535     0              5.5276639      12.145302    
     38500   3.0625245      0.96731379     0              5.5588574      12.196536    
     39000   3.0317287      1.001138       0              5.5465106      12.604287    
     39500   3.0618975      0.94251341     0              5.533117       11.988776    
     40000   3.1400595      0.98692304     0              5.6947124      12.524367    
     40500   2.971915       1.0377353      0              5.4934311      12.719029    
     41000   3.0496274      0.94749941     0              5.5197069      12.15758     
     41500   3.0325238      1.050632       0              5.5971966      12.925039    
     42000   3.050133       0.9771293      0              5.5500949      12.45488     
     42500   3.0358802      1.0039543      0              5.5555511      12.523436    
     43000   2.9741801      1.0630126      0              5.5221043      12.8784      
     43500   3.0007285      1.0188981      0              5.517793       12.731162    
     44000   3.1062345      1.0213132      0              5.6783899      12.812508    
     44500   3.0217793      0.97014526     0              5.5006011      12.159157    
     45000   3.0225832      1.0131563      0              5.5448173      12.567256    
     45500   2.9955926      1.0420899      0              5.5332848      12.846211    
     46000   3.070643       0.98260264     0              5.5863181      12.383567    
     46500   3.0711497      0.97406062     0              5.5785358      12.280194    
     47000   2.9580268      0.97288188     0              5.4077556      12.270455    
     47500   2.9680084      0.99763238     0              5.4474711      12.363025    
     48000   3.0279957      0.90608957     0              5.4458654      11.73607     
     48500   2.9439503      0.99922766     0              5.4129968      12.542092    
     49000   2.902766       1.0005224      0              5.3525453      12.399691    
     49500   2.9163826      1.0437215      0              5.4161593      12.651988    
     50000   2.9786377      0.96848064     0              5.4342555      12.241141    
Loop time of 3.39789 on 10 procs for 50000 steps with 2048 atoms

Performance: 12713767.889 tau/day, 14715.009 timesteps/s, 30.136 Matom-step/s
99.5% CPU use with 10 MPI tasks x 1 OpenMP threads

MPI task timing breakdown:
Section |  min time  |  avg time  |  max time  |%varavg| %total
---------------------------------------------------------------
Pair    | 0.32961    | 0.3343     | 0.34098    |   0.5 |  9.84
Neigh   | 1.7299     | 1.7408     | 1.7526     |   0.6 | 51.23
Comm    | 0.90512    | 0.91934    | 0.92969    |   0.7 | 27.06
Output  | 0.0013525  | 0.0018037  | 0.0056901  |   3.1 |  0.05
Modify  | 0.23535    | 0.25025    | 0.26636    |   2.1 |  7.36
Other   |            | 0.1514     |            |       |  4.46

Nlocal:          204.8 ave         211 max         196 min
Histogram: 1 0 0 2 2 0 0 1 2 2
Nghost:          461.7 ave         471 max         447 min
Histogram: 1 1 0 0 0 3 1 0 2 2
Neighs:          743.9 ave         791 max         701 min
Histogram: 1 1 0 2 2 0 2 1 0 1

Total # of neighbors = 7439
Ave neighs/atom = 3.6323242
Neighbor list builds = 20255
Dangerous builds = 0
Generated 0 of 0 mixed pair_coeff terms from geometric mixing rule
Setting up Verlet run ...
  Unit style    : lj
  Current step  : 50000
  Time step     : 0.01
Per MPI rank memory allocation (min/avg/max) = 3.144 | 3.145 | 3.146 Mbytes
   Step          Temp          E_pair         E_mol          TotEng         Press     
     50000   2.9786377      0.96848064     0              5.4342555      12.241141    
     50500   2.9378201      0.99417182     0              5.3987502      12.356162    
     51000   2.9576813      0.94458348     0              5.3789392      12.023109    
     51500   2.9764603      0.9206897      0              5.3832001      11.76924     
     52000   2.996409       0.93514702     0              5.4275658      12.113574    
     52500   2.9619531      0.94247887     0              5.383239       12.04068     
     53000   2.9821226      0.9119124      0              5.3829121      11.815655    
     53500   2.9560913      0.93190852     0              5.3638803      12.012747    
     54000   2.9010281      0.97714523     0              5.3265626      12.299902    
     54500   2.9214866      0.91660407     0              5.2966942      11.711573    
     55000   2.9248515      0.96187052     0              5.3470055      12.158956    
     55500   2.9185507      1.0184664      0              5.3941548      12.564051    
     56000   2.8319596      0.94560482     0              5.19147        12.006537    
     56500   2.8390584      0.91172619     0              5.1682343      11.758331    
     57000   2.919188       0.83864687     0              5.2152908      11.358827    
     57500   2.8393416      0.91107829     0              5.168011       11.641467    
     58000   2.7418127      0.91509183     0              5.0258027      11.729324    
     58500   2.6996799      0.84001748     0              4.88756        11.057576    
     59000   2.7006468      0.78466128     0              4.8336535      10.604385    
     59500   2.7223171      0.88570435     0              4.9671861      11.461387    
     60000   2.693477       0.92881394     0              4.9670567      11.721622    
     60500   2.751339       0.9187813      0              5.0437747      11.619207    
     61000   2.7258829      0.82617697     0              4.9130048      11.13995     
     61500   2.5771135      0.85444667     0              4.7182294      11.195491    
     62000   2.5720376      0.8577508      0              4.7139233      11.095255    
     62500   2.5542785      0.81553813     0              4.6450851      10.833329    
     63000   2.6371588      0.7667167      0              4.7205234      10.523008    
     63500   2.6667076      0.71237265     0              4.7104809      10.045253    
     64000   2.5309962      0.84472004     0              4.6393606      10.992362    
     64500   2.5306184      0.79179808     0              4.5858722      10.531457    
     65000   2.517786       0.8576505      0              4.6324854      11.067285    
     65500   2.5278221      0.81604019     0              4.6059219      10.746213    
     66000   2.5520306      0.75912804     0              4.5853048      10.332901    
     66500   2.4864803      0.79570552     0              4.5236048      10.569159    
     67000   2.5127343      0.79970122     0              4.5669624      10.657026    
     67500   2.5585399      0.77198939     0              4.6079252      10.54612     
     68000   2.5150525      0.78705122     0              4.5577879      10.457129    
     68500   2.4832757      0.78604776     0              4.5091425      10.47242     
     69000   2.4859311      0.84605355     0              4.5731295      11.009536    
     69500   2.4311637      0.71392248     0              4.3588874      9.8289864    
     70000   2.3733047      0.76437806     0              4.3225968      10.103516    
     70500   2.3338277      0.73086707     0              4.2298992      9.8642994    
     71000   2.3802182      0.72534002     0              4.2939239      9.8609883    
     71500   2.3321789      0.79838732     0              4.2949475      10.353788    
     72000   2.3773208      0.73363606     0              4.2978761      10.09959     
     72500   2.3804464      0.74818839     0              4.3171145      10.086981    
     73000   2.3563834      0.75196942     0              4.2848187      10.179732    
     73500   2.3567404      0.73133839     0              4.2647228      9.8581364    
     74000   2.3218302      0.68120867     0              4.1622534      9.5254849    
     74500   2.2184815      0.72420721     0              4.0503045      9.8746724    
     75000   2.2369626      0.70340984     0              4.0572154      9.654423     
     75500   2.2762406      0.71653145     0              4.1292251      9.7924278    
     76000   2.278872       0.70384416     0              4.120483       9.6830724    
     76500   2.3191061      0.65813877     0              4.1350994      9.3787548    
     77000   2.2018133      0.70427798     0              4.0053852      9.5690766    
     77500   2.2077965      0.70341695     0              4.0134946      9.5926777    
     78000   2.2150984      0.64123508     0              3.9622603      9.1846218    
     78500   2.2340646      0.6777576      0              4.0272182      9.3625189    
     79000   2.1872603      0.67829786     0              3.9575863      9.46992      
     79500   2.1812858      0.67692162     0              3.9472526      9.3910623    
     80000   2.1153309      0.67345105     0              3.8448981      9.2733107    
     80500   2.1335771      0.65398631     0              3.8527893      9.1383199    
     81000   2.0555974      0.62688593     0              3.7087765      8.8961069    
     81500   2.0811964      0.64053433     0              3.7608046      9.1075243    
     82000   2.077091       0.65100451     0              3.7651198      9.041639     
     82500   2.0584666      0.64852959     0              3.7347219      9.0473217    
     83000   2.0493266      0.66693561     0              3.7394246      9.2000042    
     83500   2.04007        0.65051286     0              3.7091236      9.0080046    
     84000   2.1036159      0.62263581     0              3.7765189      8.9778083    
     84500   2.0003608      0.6018143      0              3.6008904      8.6774973    
     85000   2.0152059      0.61894008     0              3.640273       8.6997177    
     85500   1.9889782      0.56984345     0              3.551854       8.3585311    
     86000   1.9388646      0.59895124     0              3.5058281      8.4948945    
     86500   1.9545833      0.55491256     0              3.4853559      8.1506755    
     87000   1.9268327      0.61592524     0              3.504763       8.632277     
     87500   1.9641233      0.52221707     0              3.4669635      7.9075247    
     88000   1.9373031      0.57534399     0              3.4798797      8.2768374    
     88500   1.9340262      0.59212633     0              3.4917491      8.4624933    
     89000   1.8962205      0.6308199      0              3.4737618      8.8388204    
     89500   1.8920691      0.58495617     0              3.4216741      8.3678901    
     90000   1.8365233      0.57982239     0              3.3332622      8.3377722    
     90500   1.8068553      0.57116124     0              3.2801208      8.2937697    
     91000   1.8156437      0.50309224     0              3.225228       7.6033129    
     91500   1.7802929      0.51726668     0              3.1864022      7.7582379    
     92000   1.7278194      0.54185387     0              3.1323175      7.8985335    
     92500   1.7549247      0.48440345     0              3.1155051      7.4514711    
     93000   1.7057033      0.50547952     0              3.0627852      7.5620667    
     93500   1.6741739      0.49366885     0              3.0037035      7.4652118    
     94000   1.7192339      0.49048276     0              3.0680744      7.4621811    
     94500   1.7031154      0.48102579     0              3.0344514      7.3575518    
     95000   1.6791039      0.48157233     0              2.9989984      7.2430051    
     95500   1.6659949      0.50117125     0              2.9989433      7.4602001    
     96000   1.6232643      0.4862265      0              2.9199341      7.3754701    
     96500   1.6625039      0.44793599     0              2.9404741      6.9224445    
     97000   1.6353692      0.47300673     0              2.9248627      7.3076424    
     97500   1.6282701      0.43421988     0              2.8754325      6.8509158    
     98000   1.5998023      0.45932617     0              2.8578579      7.0341651    
     98500   1.5372681      0.4800563      0              2.7848325      7.2885614    
     99000   1.5823336      0.42285747     0              2.795199       6.7309562    
     99500   1.5493511      0.46041159     0              2.7833034      7.0892264    
    100000   1.5279093      0.43151071     0              2.7222556      6.8404816    
    100500   1.5005361      0.44907826     0              2.6987834      6.9183483    
    101000   1.5141131      0.43041109     0              2.7004718      6.7177789    
    101500   1.5075264      0.42632685     0              2.6865123      6.7800243    
    102000   1.489184       0.41911171     0              2.6517969      6.6631881    
    102500   1.509585       0.43167439     0              2.6949463      6.8247805    
    103000   1.4897117      0.42070912     0              2.6541856      6.5864341    
    103500   1.4904139      0.39062713     0              2.6251563      6.3939543    
    104000   1.4855282      0.41492062     0              2.6421249      6.5063679    
    104500   1.477749       0.39716756     0              2.6127087      6.3834993    
    105000   1.4770044      0.37333884     0              2.5877637      6.2144671    
    105500   1.3925726      0.39126636     0              2.4791053      6.2869868    
    106000   1.3559677      0.35915529     0              2.3921137      5.9563586    
    106500   1.369173       0.35580848     0              2.4085652      5.9441331    
    107000   1.3556882      0.36619526     0              2.3987347      6.0719776    
    107500   1.3354522      0.3781851      0              2.3803853      6.0388356    
    108000   1.3421949      0.35230461     0              2.3646138      5.8329511    
    108500   1.3428333      0.34253164     0              2.355798       5.8306286    
    109000   1.2794978      0.34723171     0              2.2655413      5.7890653    
    109500   1.243429       0.3656009      0              2.2298337      5.9876882    
    110000   1.2280636      0.32836252     0              2.1695584      5.5516912    
    110500   1.2473715      0.34016899     0              2.2103126      5.6699108    
    111000   1.223055       0.35394412     0              2.1876308      5.8406263    
    111500   1.254088       0.34800913     0              2.2282225      5.7546008    
    112000   1.2086258      0.35745637     0              2.1695099      5.8345489    
    112500   1.2059727      0.35934023     0              2.167416       5.7653202    
    113000   1.1628915      0.33552578     0              2.0790114      5.5456483    
    113500   1.1495031      0.32309197     0              2.0465047      5.370606     
    114000   1.1499442      0.31283314     0              2.0369072      5.3127469    
    114500   1.1644248      0.28504777     0              2.0308322      5.1130757    
    115000   1.1098159      0.28128936     0              1.9452004      5.0028791    
    115500   1.0997515      0.29038329     0              1.939205       5.1282693    
    116000   1.0710797      0.27975947     0              1.8855946      4.9758564    
    116500   1.077612       0.27394925     0              1.8895779      4.9184826    
    117000   1.0740283      0.28487914     0              1.8951349      5.0281507    
    117500   1.0343427      0.26751493     0              1.8182715      4.7958047    
    118000   1.0210099      0.25833726     0              1.7891043      4.7071005    
    118500   0.99151179     0.26946288     0              1.7560044      4.8246285    
    119000   0.98663445     0.28354695     0              1.762776       4.9663499    
    119500   0.99847055     0.25145817     0              1.7484327      4.6257192    
    120000   0.96645518     0.26191654     0              1.7108915      4.6447975    
    120500   0.98227724     0.26718319     0              1.7398796      4.7401628    
    121000   0.94711017     0.24487762     0              1.6648492      4.5404029    
    121500   0.93011908     0.24525579     0              1.6397532      4.4898133    
    122000   0.92424098     0.25182629     0              1.6375108      4.5950709    
    122500   0.90456667     0.24546515     0              1.6016526      4.3898315    
    123000   0.88868503     0.22316557     0              1.5555422      4.2461596    
    123500   0.87487411     0.21851144     0              1.5301818      4.1643032    
    124000   0.85168494     0.22379564     0              1.5006993      4.2052522    
    124500   0.83337471     0.21472794     0              1.4641796      4.1122169    
    125000   0.82041586     0.20075339     0              1.4307763      3.8967711    
    125500   0.79283512     0.19951594     0              1.3881879      3.9266181    
    126000   0.77157806     0.21963284     0              1.3764348      4.0981937    
    126500   0.77908178     0.1941743      0              1.3622264      3.8052018    
    127000   0.76620189     0.18974394     0              1.3384856      3.7119624    
    127500   0.7666118      0.17757084     0              1.3269271      3.5842534    
    128000   0.7504529      0.19283737     0              1.3179671      3.8231482    
    128500   0.72499107     0.19744773     0              1.2844033      3.8062567    
    129000   0.6970445      0.18328356     0              1.2283398      3.5652042    
    129500   0.69062252     0.16507926     0              1.2005072      3.365324     
    130000   0.65419636     0.16560068     0              1.1464161      3.3994878    
    130500   0.66244927     0.15174283     0              1.1449315      3.2560713    
    131000   0.64391465     0.14895992     0              1.1143603      3.1184365    
    131500   0.64598958     0.13963518     0              1.1081464      3.0058778    
    132000   0.6292613      0.15156744     0              1.0949985      3.2030869    
    132500   0.61450774     0.14715507     0              1.0684666      3.115423     
    133000   0.59014053     0.13496215     0              1.0197407      2.9602146    
    133500   0.58724198     0.12362315     0              1.004056       2.7549456    
    134000   0.57668919     0.12306132     0              0.98767272     2.7503086    
    134500   0.54159963     0.11162195     0              0.92362472     2.5709077    
    135000   0.53032633     0.12399706     0              0.91909814     2.7628092    
    135500   0.527355       0.11815237     0              0.90879863     2.7056531    
    136000   0.49958024     0.11055563     0              0.85956008     2.5781972    
    136500   0.48907964     0.10857757     0              0.84183881     2.514669     
    137000   0.49081012     0.098481489    0              0.8343372      2.3822103    
    137500   0.46164626     0.10896538     0              0.80109665     2.4846104    
    138000   0.43184613     0.095888462    0              0.74334137     2.3398754    
    138500   0.43627417     0.087881856    0              0.74197357     2.1641055    
    139000   0.41820155     0.091237376    0              0.7182334      2.2768095    
    139500   0.40533546     0.083646882    0              0.69135319     2.130493     
    140000   0.40020029     0.077335995    0              0.67734332     2.0208586    
    140500   0.36361313     0.081433751    0              0.62658712     2.0573623    
    141000   0.36110404     0.072718354    0              0.61410994     1.8923264    
    141500   0.34380238     0.066383238    0              0.581835       1.8294399    
    142000   0.33688107     0.058280709    0              0.56335558     1.6163221    
    142500   0.32817458     0.060697245    0              0.55271876     1.6993412    
    143000   0.30544835     0.052631656    0              0.51058046     1.5327224    
    143500   0.28904077     0.054453034    0              0.4878025      1.5777499    
    144000   0.2661169      0.048569625    0              0.44755006     1.4215909    
    144500   0.25806067     0.047107448    0              0.43400944     1.3962403    
    145000   0.24249854     0.042902224    0              0.40647242     1.3340197    
    145500   0.22967491     0.040165006    0              0.38450915     1.2669008    
    146000   0.22198079     0.034276061    0              0.36708466     1.1367281    
    146500   0.1985269      0.032776602    0              0.33042155     1.0761495    
    147000   0.18696571     0.030615923    0              0.31092755     1.0519855    
    147500   0.17394396     0.027972876    0              0.28876141     0.9959805    
    148000   0.16036668     0.023107305    0              0.26353987     0.87708803   
    148500   0.14557741     0.019801672    0              0.23806116     0.77791674   
    149000   0.13064864     0.017797612    0              0.21367489     0.72011377   
    149500   0.11690611     0.014064654    0              0.1893382      0.62152214   
    150000   0.10231209     0.011396452    0              0.16478965     0.54443453   
Loop time of 5.41903 on 10 procs for 100000 steps with 2048 atoms

Performance: 15943806.896 tau/day, 18453.480 timesteps/s, 37.793 Matom-step/s
99.5% CPU use with 10 MPI tasks x 1 OpenMP threads

MPI task timing breakdown:
Section |  min time  |  avg time  |  max time  |%varavg| %total
---------------------------------------------------------------
Pair    | 0.58821    | 0.5943     | 0.60476    |   0.7 | 10.97
Neigh   | 2.4205     | 2.4398     | 2.4556     |   0.7 | 45.02
Comm    | 1.58       | 1.6026     | 1.6187     |   0.8 | 29.57
Output  | 0.025459   | 0.025598   | 0.026551   |   0.2 |  0.47
Modify  | 0.46031    | 0.48605    | 0.51395    |   2.5 |  8.97
Other   |            | 0.2707     |            |       |  4.99

Nlocal:          204.8 ave         211 max         199 min
Histogram: 2 0 1 0 3 0 1 1 1 1
Nghost:          455.7 ave         469 max         443 min
Histogram: 1 1 0 2 1 1 2 1 0 1
Neighs:          786.2 ave         823 max         754 min
Histogram: 2 1 1 0 1 1 2 0 1 1

Total # of neighbors = 7862
Ave neighs/atom = 3.8388672
Neighbor list builds = 28349
Dangerous builds = 0
Total wall time: 0:00:08
